 *******************************************************************************
 ** Site#: 29116        For non-commercial use only    Version 18.025L 64BITS **
 *******************************************************************************
 ** Cite this program as: MOPAC2016, Version: 18.025L, James J. P. Stewart,   **
 ** Stewart Computational Chemistry, web: HTTP://OpenMOPAC.net. Days left: 115**
 *******************************************************************************
 **                                                                           **
 **                                MOPAC2016                                  **
 **                                                                           **
 *******************************************************************************

                              PM7 CALCULATION RESULTS


 *******************************************************************************
 *  CALCULATION DONE:                                Tue Oct  2 19:51:00 2018  *
 *  PM7        - The PM7 Hamiltonian to be used
 *  DOUBLET    - SPIN STATE DEFINED AS A DOUBLET
 *  UHF        - UNRESTRICTED HARTREE-FOCK CALCULATION
 *
 *
 *
 *                 CHARGE ON SYSTEM =    -1
 *
 *
 *
 *  1SCF       - DO 1 SCF AND THEN STOP 
 *  T=         - A TIME OF 172800.0 SECONDS REQUESTED
 *  DUMP=N     - RESTART FILE WRITTEN EVERY  7200.000 SECONDS
 *  AUX        - OUTPUT AUXILIARY INFORMATION
 *  BONDS      - FINAL BOND-ORDER MATRIX TO BE PRINTED
 *******************************************************************************
PM7 1SCF    UHF CHARGE=-1 Doublet  BONDS AUX

 Mopac file generated by Gabedit
   ATOM   CHEMICAL          X               Y               Z
  NUMBER   SYMBOL      (ANGSTROMS)     (ANGSTROMS)     (ANGSTROMS)
 
     1       C         -0.73900000  *   1.18900000  *  -0.00733400  *
     2       C          0.61400000  *   1.20800000  *   0.35166600  *
     3       C          1.35300000  *   0.01900000  *   0.35866600  *
     4       C          0.73900000  *  -1.18900000  *   0.00666600  *
     5       C         -0.61400000  *  -1.20800000  *  -0.35133400  *
     6       C         -1.35300000  *  -0.01900000  *  -0.35833400  *
     7       H         -1.30900000  *   2.10600000  *  -0.01233400  *
     8       H          1.08800000  *   2.14000000  *   0.62266600  *
     9       H          2.39700000  *   0.03400000  *   0.63466600  *
    10       H          1.30900000  *  -2.10600000  *   0.01266600  *
    11       H         -1.08800000  *  -2.14000000  *  -0.62233400  *
    12       H         -2.39700000  *  -0.03400000  *  -0.63533400  *
 


          CARTESIAN COORDINATES 

    NO.       ATOM           X           Y           Z

     1         C         -0.7390      1.1890     -0.0073
     2         C          0.6140      1.2080      0.3517
     3         C          1.3530      0.0190      0.3587
     4         C          0.7390     -1.1890      0.0067
     5         C         -0.6140     -1.2080     -0.3513
     6         C         -1.3530     -0.0190     -0.3583
     7         H         -1.3090      2.1060     -0.0123
     8         H          1.0880      2.1400      0.6227
     9         H          2.3970      0.0340      0.6347
    10         H          1.3090     -2.1060      0.0127
    11         H         -1.0880     -2.1400     -0.6223
    12         H         -2.3970     -0.0340     -0.6353

 General Reference for PM7:
 "Optimization of Parameters for Semiempirical Methods VI: More Modifications to the 
 NDDO Approximations and Re-optimization of Parameters", J. J. P. Stewart, J. Mol. Mod., 1:32, 19 (2013)
 http://www.springerlink.com/openurl.asp?genre=article&id=doi:10.1007/s00894-012-1667-x

           Empirical Formula: C6 H6  =    12 atoms



      MOLECULAR POINT GROUP   :   D6h 


 DOUBLET STATE CALCULATION


          UHF CALCULATION, NO. OF ALPHA ELECTRONS =   16
                           NO. OF BETA  ELECTRONS =   15

 -------------------------------------------------------------------------------
 PM7 1SCF    UHF CHARGE=-1 Doublet  BONDS AUX

 Mopac file generated by Gabedit


     1SCF WAS SPECIFIED, SO BFGS WAS NOT USED                 
     SCF FIELD WAS ACHIEVED                                   


                              PM7 CALCULATION
                                                       MOPAC2016 (Version: 18.025L)
                                                       Tue Oct  2 19:51:00 2018
                                                       No. of days remaining = 115




          FINAL HEAT OF FORMATION =         19.67747 KCAL/MOL =      82.33055 KJ/MOL


          TOTAL ENERGY            =       -817.70401 EV
          ELECTRONIC ENERGY       =      -3247.47964 EV  POINT GROUP:     D6h 
          CORE-CORE REPULSION     =       2429.77563 EV
          COSMO AREA              =        118.62 SQUARE ANGSTROMS
          COSMO VOLUME            =        107.09 CUBIC ANGSTROMS

          IONIZATION POTENTIAL    =          0.516440 EV
          ALPHA SOMO LUMO (EV)    =         -0.516  6.354
          BETA  SOMO LUMO (EV)    =         -3.148  6.112
          NO. OF ALPHA ELECTRONS  =         16
          NO. OF BETA  ELECTRONS  =         15
          MOLECULAR WEIGHT        =         78.1134

          MOLECULAR DIMENSIONS (Angstroms)

            Atom       Atom       Distance
            H    11    H     8     4.96018
            H    12    H    10     4.29506
            H     7    H     9     0.00096


          SCF CALCULATIONS        =          1
 
          WALL-CLOCK TIME         =          0.047 SECONDS
          COMPUTATION TIME        =          0.144 SECONDS




   ATOM   CHEMICAL          X               Y               Z
  NUMBER   SYMBOL      (ANGSTROMS)     (ANGSTROMS)     (ANGSTROMS)
 
     1       C         -0.73900000  *   1.18900000  *  -0.00733400  *
     2       C          0.61400000  *   1.20800000  *   0.35166600  *
     3       C          1.35300000  *   0.01900000  *   0.35866600  *
     4       C          0.73900000  *  -1.18900000  *   0.00666600  *
     5       C         -0.61400000  *  -1.20800000  *  -0.35133400  *
     6       C         -1.35300000  *  -0.01900000  *  -0.35833400  *
     7       H         -1.30900000  *   2.10600000  *  -0.01233400  *
     8       H          1.08800000  *   2.14000000  *   0.62266600  *
     9       H          2.39700000  *   0.03400000  *   0.63466600  *
    10       H          1.30900000  *  -2.10600000  *   0.01266600  *
    11       H         -1.08800000  *  -2.14000000  *  -0.62233400  *
    12       H         -2.39700000  *  -0.03400000  *  -0.63533400  *

                             CARTESIAN COORDINATES

   1    C       -0.739000000     1.189000000    -0.007334000
   2    C        0.614000000     1.208000000     0.351666000
   3    C        1.353000000     0.019000000     0.358666000
   4    C        0.739000000    -1.189000000     0.006666000
   5    C       -0.614000000    -1.208000000    -0.351334000
   6    C       -1.353000000    -0.019000000    -0.358334000
   7    H       -1.309000000     2.106000000    -0.012334000
   8    H        1.088000000     2.140000000     0.622666000
   9    H        2.397000000     0.034000000     0.634666000
  10    H        1.309000000    -2.106000000     0.012666000
  11    H       -1.088000000    -2.140000000    -0.622334000
  12    H       -2.397000000    -0.034000000    -0.635334000


           Empirical Formula: C6 H6  =    12 atoms



      MOLECULAR POINT GROUP   :   D6h 


          ALPHA EIGENVALUES  
 -23.79359 -19.87343 -19.29184 -15.00875 -14.89302 -12.30227  -9.85545  -9.07683
  -8.40021  -8.21248  -7.51998  -6.13462  -6.05477  -4.42793  -4.35074  -0.51644
   6.35355   7.60138  10.31352  10.43061  11.00436  11.10850  11.48212  11.54457
  11.63374  11.78515  12.03544  12.11975  12.16334  12.73604


           BETA EIGENVALUES 
 -23.73672 -19.84455 -19.18613 -14.98206 -14.75437 -12.24867  -9.79774  -9.00691
  -8.38614  -8.12023  -7.12260  -6.07323  -6.00383  -3.94517  -3.14756   6.11195
   6.87395   8.84285  10.40023  10.46020  10.98478  11.20028  11.48560  11.55684
  11.78085  11.85533  12.14961  12.26295  12.38595  12.90032


              NET ATOMIC CHARGES AND DIPOLE CONTRIBUTIONS

  ATOM NO.   TYPE          CHARGE      No. of ELECS.   s-Pop       p-Pop       
    1          C          -0.086725        4.0867     1.07751     3.00922
    2          C          -0.308391        4.3084     1.05118     3.25721
    3          C          -0.369507        4.3695     1.04391     3.32560
    4          C          -0.086773        4.0868     1.07751     3.00926
    5          C          -0.308183        4.3082     1.05116     3.25702
    6          C          -0.369374        4.3694     1.04391     3.32546
    7          H           0.079853        0.9201     0.92015
    8          H           0.090785        0.9092     0.90921
    9          H           0.093839        0.9062     0.90616
   10          H           0.079846        0.9202     0.92015
   11          H           0.090784        0.9092     0.90922
   12          H           0.093842        0.9062     0.90616
 DIPOLE           X         Y         Z       TOTAL
 POINT-CHG.    -0.002    -0.001    -0.001     0.002
 HYBRID         0.000     0.000    -0.001     0.001
 SUM           -0.001    -0.001    -0.002     0.003


          ATOMIC ORBITAL ELECTRON POPULATIONS

     Atom    s        px        py        pz   
    1  C   1.07751   1.00757   1.01696   0.98468
    2  C   1.05118   1.01342   1.03621   1.20759
    3  C   1.04391   1.05363   1.00307   1.26890
    4  C   1.07751   1.00758   1.01699   0.98469
    5  C   1.05116   1.01333   1.03621   1.20749
    6  C   1.04391   1.05365   1.00302   1.26879
    7  H   0.92015
    8  H   0.90921
    9  H   0.90616
   10  H   0.92015
   11  H   0.90922
   12  H   0.90616


                    (SZ)    =    0.500000
                    (S**2)  =    0.809764


          ATOMIC ORBITAL SPIN POPULATIONS

    Atom   Total    s     px     py     pz   
         Atomic
    1  C -0.1765 -0.007 -0.020 -0.014 -0.135
    2  C  0.2802  0.005  0.025  0.008  0.242
    3  C  0.4130  0.009  0.035  0.018  0.351
    4  C -0.1765 -0.007 -0.020 -0.014 -0.135
    5  C  0.2799  0.005  0.024  0.008  0.242
    6  C  0.4127  0.009  0.035  0.018  0.351
    7  H  0.0047  0.005
    8  H -0.0085 -0.009
    9  H -0.0127 -0.013
   10  H  0.0047  0.005
   11  H -0.0085 -0.009
   12  H -0.0126 -0.013

          BONDING CONTRIBUTION OF EACH ALPHA M.O.

  0.9862  0.9661  0.9808  0.9778  0.9796  1.0004  0.9907  1.0002  1.0202  1.0112
  0.6390  1.0119  1.0152  0.4189  0.8052  0.4158 -1.0548 -1.2240 -0.9822 -0.9793
 -0.9918 -0.9999 -1.0107 -0.9784 -0.9833 -1.0133 -1.0041 -1.0044 -1.0036 -0.9891

          BONDING CONTRIBUTION OF EACH BETA  M.O.

  0.9869  0.9677  0.9814  0.9789  0.9807  1.0033  0.9928  0.9994  1.0188  1.0142
  0.9872  1.0128  1.0135  0.9219  1.0646 -1.0547 -0.9325 -0.9865 -0.9813 -0.9826
 -0.9925 -1.0001 -1.0103 -0.9811 -0.9873 -1.0080 -1.0048 -1.0049 -1.0072 -0.9904





            (VALENCIES)   BOND ORDERS

     1  C     (3.989)     2  C 1.528     6  C 1.408     7  H 0.997     4  C 0.081
 
     2  C     (3.939)     1  C 1.528     3  C 1.176     8  H 0.997     6  C 0.055     5  C 0.022
 
     3  C     (3.905)     4  C 1.408     2  C 1.176     9  H 0.997     5  C 0.055     6  C 0.011
 
     4  C     (3.989)     5  C 1.529     3  C 1.408    10  H 0.997     1  C 0.081
 
     5  C     (3.940)     4  C 1.529     6  C 1.176    11  H 0.997     3  C 0.055     2  C 0.022
 
     6  C     (3.905)     1  C 1.408     5  C 1.176    12  H 0.996     2  C 0.055     3  C 0.011
 
     7  H     (0.994)     1  C 0.997
 
     8  H     (0.992)     2  C 0.997
 
     9  H     (0.991)     3  C 0.997
 
    10  H     (0.994)     4  C 0.997
 
    11  H     (0.992)     5  C 0.997
 
    12  H     (0.991)     6  C 0.996
 

 **********************
 *                    *
 * JOB ENDED NORMALLY *
 *                    *
 **********************



 TOTAL JOB TIME:             0.07 SECONDS

 == MOPAC DONE ==
