 *******************************************************************************
 ** Site#: 29116        For non-commercial use only    Version 18.025L 64BITS **
 *******************************************************************************
 ** Cite this program as: MOPAC2016, Version: 18.025L, James J. P. Stewart,   **
 ** Stewart Computational Chemistry, web: HTTP://OpenMOPAC.net. Days left: 115**
 *******************************************************************************
 **                                                                           **
 **                                MOPAC2016                                  **
 **                                                                           **
 *******************************************************************************

                              PM7 CALCULATION RESULTS


 *******************************************************************************
 *  CALCULATION DONE:                                Tue Oct  2 19:51:10 2018  *
 *  PM7        - The PM7 Hamiltonian to be used
 *  DOUBLET    - SPIN STATE DEFINED AS A DOUBLET
 *  UHF        - UNRESTRICTED HARTREE-FOCK CALCULATION
 *
 *
 *
 *                 CHARGE ON SYSTEM =    +1
 *
 *
 *
 *  1SCF       - DO 1 SCF AND THEN STOP 
 *  T=         - A TIME OF 172800.0 SECONDS REQUESTED
 *  DUMP=N     - RESTART FILE WRITTEN EVERY  7200.000 SECONDS
 *  AUX        - OUTPUT AUXILIARY INFORMATION
 *  BONDS      - FINAL BOND-ORDER MATRIX TO BE PRINTED
 *******************************************************************************
PM7 1SCF    UHF CHARGE=1 Doublet  BONDS AUX

 Mopac file generated by Gabedit
   ATOM   CHEMICAL          X               Y               Z
  NUMBER   SYMBOL      (ANGSTROMS)     (ANGSTROMS)     (ANGSTROMS)
 
     1       C         -0.73900000  *   1.18900000  *  -0.00733400  *
     2       C          0.61400000  *   1.20800000  *   0.35166600  *
     3       C          1.35300000  *   0.01900000  *   0.35866600  *
     4       C          0.73900000  *  -1.18900000  *   0.00666600  *
     5       C         -0.61400000  *  -1.20800000  *  -0.35133400  *
     6       C         -1.35300000  *  -0.01900000  *  -0.35833400  *
     7       H         -1.30900000  *   2.10600000  *  -0.01233400  *
     8       H          1.08800000  *   2.14000000  *   0.62266600  *
     9       H          2.39700000  *   0.03400000  *   0.63466600  *
    10       H          1.30900000  *  -2.10600000  *   0.01266600  *
    11       H         -1.08800000  *  -2.14000000  *  -0.62233400  *
    12       H         -2.39700000  *  -0.03400000  *  -0.63533400  *
 


          CARTESIAN COORDINATES 

    NO.       ATOM           X           Y           Z

     1         C         -0.7390      1.1890     -0.0073
     2         C          0.6140      1.2080      0.3517
     3         C          1.3530      0.0190      0.3587
     4         C          0.7390     -1.1890      0.0067
     5         C         -0.6140     -1.2080     -0.3513
     6         C         -1.3530     -0.0190     -0.3583
     7         H         -1.3090      2.1060     -0.0123
     8         H          1.0880      2.1400      0.6227
     9         H          2.3970      0.0340      0.6347
    10         H          1.3090     -2.1060      0.0127
    11         H         -1.0880     -2.1400     -0.6223
    12         H         -2.3970     -0.0340     -0.6353

 General Reference for PM7:
 "Optimization of Parameters for Semiempirical Methods VI: More Modifications to the 
 NDDO Approximations and Re-optimization of Parameters", J. J. P. Stewart, J. Mol. Mod., 1:32, 19 (2013)
 http://www.springerlink.com/openurl.asp?genre=article&id=doi:10.1007/s00894-012-1667-x

           Empirical Formula: C6 H6  =    12 atoms



      MOLECULAR POINT GROUP   :   D6h 


 DOUBLET STATE CALCULATION


          UHF CALCULATION, NO. OF ALPHA ELECTRONS =   15
                           NO. OF BETA  ELECTRONS =   14

 -------------------------------------------------------------------------------
 PM7 1SCF    UHF CHARGE=1 Doublet  BONDS AUX

 Mopac file generated by Gabedit


     1SCF WAS SPECIFIED, SO BFGS WAS NOT USED                 
     SCF FIELD WAS ACHIEVED                                   


                              PM7 CALCULATION
                                                       MOPAC2016 (Version: 18.025L)
                                                       Tue Oct  2 19:51:10 2018
                                                       No. of days remaining = 115




          FINAL HEAT OF FORMATION =        241.52347 KCAL/MOL =    1010.53421 KJ/MOL


          TOTAL ENERGY            =       -808.08385 EV
          ELECTRONIC ENERGY       =      -3237.85948 EV  POINT GROUP:     D6h 
          CORE-CORE REPULSION     =       2429.77563 EV
          COSMO AREA              =        118.62 SQUARE ANGSTROMS
          COSMO VOLUME            =        107.09 CUBIC ANGSTROMS

          IONIZATION POTENTIAL    =         15.751025 EV
          ALPHA SOMO LUMO (EV)    =        -15.751 -6.463
          BETA  SOMO LUMO (EV)    =        -15.928 -9.126
          NO. OF ALPHA ELECTRONS  =         15
          NO. OF BETA  ELECTRONS  =         14
          MOLECULAR WEIGHT        =         78.1134

          MOLECULAR DIMENSIONS (Angstroms)

            Atom       Atom       Distance
            H    11    H     8     4.96018
            H    12    H    10     4.29506
            H     7    H     9     0.00096


          SCF CALCULATIONS        =          1
 
          WALL-CLOCK TIME         =          0.078 SECONDS
          COMPUTATION TIME        =          0.240 SECONDS




   ATOM   CHEMICAL          X               Y               Z
  NUMBER   SYMBOL      (ANGSTROMS)     (ANGSTROMS)     (ANGSTROMS)
 
     1       C         -0.73900000  *   1.18900000  *  -0.00733400  *
     2       C          0.61400000  *   1.20800000  *   0.35166600  *
     3       C          1.35300000  *   0.01900000  *   0.35866600  *
     4       C          0.73900000  *  -1.18900000  *   0.00666600  *
     5       C         -0.61400000  *  -1.20800000  *  -0.35133400  *
     6       C         -1.35300000  *  -0.01900000  *  -0.35833400  *
     7       H         -1.30900000  *   2.10600000  *  -0.01233400  *
     8       H          1.08800000  *   2.14000000  *   0.62266600  *
     9       H          2.39700000  *   0.03400000  *   0.63466600  *
    10       H          1.30900000  *  -2.10600000  *   0.01266600  *
    11       H         -1.08800000  *  -2.14000000  *  -0.62233400  *
    12       H         -2.39700000  *  -0.03400000  *  -0.63533400  *

                             CARTESIAN COORDINATES

   1    C       -0.739000000     1.189000000    -0.007334000
   2    C        0.614000000     1.208000000     0.351666000
   3    C        1.353000000     0.019000000     0.358666000
   4    C        0.739000000    -1.189000000     0.006666000
   5    C       -0.614000000    -1.208000000    -0.351334000
   6    C       -1.353000000    -0.019000000    -0.358334000
   7    H       -1.309000000     2.106000000    -0.012334000
   8    H        1.088000000     2.140000000     0.622666000
   9    H        2.397000000     0.034000000     0.634666000
  10    H        1.309000000    -2.106000000     0.012666000
  11    H       -1.088000000    -2.140000000    -0.622334000
  12    H       -2.397000000    -0.034000000    -0.635334000


           Empirical Formula: C6 H6  =    12 atoms



      MOLECULAR POINT GROUP   :   D6h 


          ALPHA EIGENVALUES  
 -36.97818 -32.48866 -31.87307 -27.14602 -26.94629 -23.90532 -21.40550 -21.25098
 -20.41019 -20.13115 -19.66654 -17.96550 -17.84391 -16.44753 -15.75103  -6.46285
  -5.66736  -3.71137  -1.85486  -1.69035  -1.59347  -1.15934  -1.09083  -0.71505
  -0.08644   0.28751   0.32786   0.43383   0.85625   0.92228


           BETA EIGENVALUES 
 -36.82679 -32.20063 -31.84070 -27.03785 -26.84449 -23.84357 -21.29320 -21.19108
 -20.26586 -20.13960 -18.41177 -17.91401 -17.76548 -15.92786  -9.12580  -5.26977
  -5.18900  -3.31127  -1.75332  -1.64234  -1.48243  -1.10317  -1.04397  -0.66206
  -0.02589   0.38295   0.38902   0.49023   0.83569   0.89780


              NET ATOMIC CHARGES AND DIPOLE CONTRIBUTIONS

  ATOM NO.   TYPE          CHARGE      No. of ELECS.   s-Pop       p-Pop       
    1          C          -0.198498        4.1985     1.09370     3.10480
    2          C           0.021836        3.9782     1.12059     2.85757
    3          C           0.063458        3.9365     1.12593     2.81062
    4          C          -0.198598        4.1986     1.09372     3.10487
    5          C           0.021758        3.9782     1.12053     2.85771
    6          C           0.063235        3.9368     1.12586     2.81090
    7          H           0.210670        0.7893     0.78933
    8          H           0.202253        0.7977     0.79775
    9          H           0.200388        0.7996     0.79961
   10          H           0.210709        0.7893     0.78929
   11          H           0.202303        0.7977     0.79770
   12          H           0.200487        0.7995     0.79951
 DIPOLE           X         Y         Z       TOTAL
 POINT-CHG.     0.000     0.000     0.001     0.001
 HYBRID         0.000     0.000     0.001     0.001
 SUM            0.000     0.000     0.002     0.002


          ATOMIC ORBITAL ELECTRON POPULATIONS

     Atom    s        px        py        pz   
    1  C   1.09370   1.01567   1.08212   1.00700
    2  C   1.12059   0.99526   1.06747   0.79484
    3  C   1.12593   1.08636   0.97157   0.75269
    4  C   1.09372   1.01574   1.08209   1.00705
    5  C   1.12053   0.99523   1.06748   0.79500
    6  C   1.12586   1.08643   0.97162   0.75286
    7  H   0.78933
    8  H   0.79775
    9  H   0.79961
   10  H   0.78929
   11  H   0.79770
   12  H   0.79951


                    (SZ)    =    0.500000
                    (S**2)  =    0.797231


          ATOMIC ORBITAL SPIN POPULATIONS

    Atom   Total    s     px     py     pz   
         Atomic
    1  C -0.1670 -0.007 -0.020 -0.013 -0.127
    2  C  0.2925  0.005  0.025  0.009  0.253
    3  C  0.3897  0.008  0.032  0.017  0.333
    4  C -0.1670 -0.007 -0.019 -0.013 -0.127
    5  C  0.2920  0.005  0.025  0.009  0.253
    6  C  0.3892  0.008  0.032  0.017  0.332
    7  H  0.0043  0.004
    8  H -0.0082 -0.008
    9  H -0.0108 -0.011
   10  H  0.0042  0.004
   11  H -0.0081 -0.008
   12  H -0.0108 -0.011

          BONDING CONTRIBUTION OF EACH ALPHA M.O.

  0.9598  0.9453  0.9597  0.9637  0.9691  0.9592  1.0274  0.9597  0.9867  0.9812
  0.9892  1.0094  1.0096  0.9343  1.0513 -1.0640 -0.9252 -0.9856 -0.9727 -0.9664
 -1.0117 -0.9898 -1.0017 -1.0154 -0.9474 -0.9709 -0.9595 -0.9705 -0.9608 -0.9641

          BONDING CONTRIBUTION OF EACH BETA  M.O.

  0.9616  0.9474  0.9624  0.9667  0.9705  0.9625  1.0262  0.9637  0.9943  0.9788
  1.2466  1.0118  1.0098  1.0625 -0.4246 -0.8261 -0.4205 -0.6378 -0.9699 -0.9710
 -1.0124 -0.9950 -0.9963 -1.0179 -0.9545 -0.9783 -0.9666 -0.9743 -0.9585 -0.9614





            (VALENCIES)   BOND ORDERS

     1  C     (3.956)     2  C 1.517     6  C 1.427     7  H 0.962     4  C 0.083
 
     2  C     (3.903)     1  C 1.517     3  C 1.172     8  H 0.965     6  C 0.060     5  C 0.020
 
     3  C     (3.879)     4  C 1.426     2  C 1.172     9  H 0.966     5  C 0.060     6  C 0.012
 
     4  C     (3.956)     5  C 1.518     3  C 1.426    10  H 0.962     1  C 0.083
 
     5  C     (3.903)     4  C 1.518     6  C 1.172    11  H 0.965     3  C 0.060     2  C 0.020
 
     6  C     (3.879)     1  C 1.427     5  C 1.172    12  H 0.966     2  C 0.060     3  C 0.012
 
     7  H     (0.956)     1  C 0.962
 
     8  H     (0.959)     2  C 0.965
 
     9  H     (0.960)     3  C 0.966
 
    10  H     (0.956)     4  C 0.962
 
    11  H     (0.959)     5  C 0.965
 
    12  H     (0.960)     6  C 0.966
 

 **********************
 *                    *
 * JOB ENDED NORMALLY *
 *                    *
 **********************



 TOTAL JOB TIME:             0.10 SECONDS

 == MOPAC DONE ==
