
                                 *****************
                                 * O   R   C   A *
                                 *****************

           --- An Ab Initio, DFT and Semiempirical electronic structure package ---

                  #######################################################
                  #                        -***-                        #
                  #  Department of molecular theory and spectroscopy    #
                  #              Directorship: Frank Neese              #
                  # Max Planck Institute for Chemical Energy Conversion #
                  #                  D-45470 Muelheim/Ruhr              #
                  #                       Germany                       #
                  #                                                     #
                  #                  All rights reserved                #
                  #                        -***-                        #
                  #######################################################


                         Program Version 3.0.3 - RELEASE   -


 With contributions from (in alphabetic order):
   Ute Becker             : Parallelization
   Dmytro Bykov           : SCF Hessian
   Dmitry Ganyushin       : Spin-Orbit,Spin-Spin,Magnetic field MRCI
   Andreas Hansen         : Spin unrestricted coupled pair/coupled cluster methods
   Dimitrios Liakos       : Extrapolation schemes; parallel MDCI
   Robert Izsak           : Overlap fitted RIJCOSX, COSX-SCS-MP3
   Christian Kollmar      : KDIIS, OOCD, Brueckner-CCSD(T), CCSD density
   Simone Kossmann        : Meta GGA functionals, TD-DFT gradient, OOMP2, MP2 Hessian
   Taras Petrenko         : DFT Hessian,TD-DFT gradient, ASA and ECA modules, normal mode analysis, Resonance Raman, ABS, FL, XAS/XES, NRVS
   Christoph Reimann      : Effective Core Potentials
   Michael Roemelt        : Restricted open shell CIS
   Christoph Riplinger    : Improved optimizer, TS searches, QM/MM, DLPNO-CCSD
   Barbara Sandhoefer     : DKH picture change effects
   Igor Schapiro          : Molecular dynamics
   Kantharuban Sivalingam : CASSCF convergence, NEVPT2
   Boris Wezisla          : Elementary symmetry handling
   Frank Wennmohs         : Technical directorship


 We gratefully acknowledge several colleagues who have allowed us to
 interface, adapt or use parts of their codes:
   Stefan Grimme, W. Hujo, H. Kruse, T. Risthaus : VdW corrections, initial TS optimization,
                                                   DFT functionals, gCP
   Ed Valeev                                     : LibInt (2-el integral package), F12 methods
   Garnet Chan, S. Sharma, R. Olivares           : DMRG
   Ulf Ekstrom                                   : XCFun DFT Library
   Mihaly Kallay                                 : mrcc  (arbitrary order and MRCC methods)
   Andreas Klamt, Michael Diedenhofen            : otool_cosmo (COSMO solvation model)
   Frank Weinhold                                : gennbo (NPA and NBO analysis)
   Christopher J. Cramer and Donald G. Truhlar   : smd solvation model


 Your calculation uses the libint2 library for the computation of 2-el integrals
 For citations please refer to: http://libint.valeyev.net

 This ORCA versions uses:
   CBLAS   interface :  Fast vector & matrix operations
   LAPACKE interface :  Fast linear algebra routines
   SCALAPACK package :  Parallel linear algebra routines


Your calculation utilizes the basis: 3-21G
Cite in your paper:
H - Ne: J.S. Binkley, J.A. Pople, W.J. Hehre, J. Am. Chem. Soc. 102 939 (1980)
Na - Ar: M.S. Gordon, J.S. Binkley, J.A. Pople, W.J. Pietro and W.J. Hehre,
         J. Am. Chem. Soc. 104, 2797 (1983).
 K - Ca: K.D. Dobbs, W.J. Hehre, J. Comput. Chem. 7, 359 (1986).
Ga - Kr: K.D. Dobbs, W.J. Hehre, J. Comput. Chem. 7, 359 (1986).
Sc - Zn: K.D. Dobbs, W.J. Hehre, J. Comput. Chem. 8, 861 (1987).
Y - Cd: K.D. Dobbs, W.J. Hehre, J. Comput. Chem. 8, 880 (1987).
Cs     : A 3-21G quality set derived from the Huzinage MIDI basis sets.
        E.D. Glendening and D. Feller, J. Phys. Chem. (to be published)

================================================================================
                                        WARNINGS
                       Please study these warnings very carefully!
================================================================================
Now building the actual basis set

WARNING: your system is open-shell and RHF/RKS was chosen
  ===> : WILL SWITCH to UHF/UKS



INFO   : the flag for use of LIBINT has been found!

================================================================================
                                       INPUT FILE
================================================================================
NAME = benzen_orca_an.inp
|  1> # ================================================================
|  2> # Orca input file made in Gabedit
|  3> # ================================================================
|  4> !  HF 
|  5> ! PrintBasis 3-21G 
|  6> %output
|  7>      print[p_mos] 1
|  8>  end #output
|  9> * xyz -1   2
| 10>  C  -0.739000 1.189000 -0.007334
| 11>  C  0.614000 1.208000 0.351666
| 12>  C  1.353000 0.019000 0.358666
| 13>  C  0.739000 -1.189000 0.006666
| 14>  C  -0.614000 -1.208000 -0.351334
| 15>  C  -1.353000 -0.019000 -0.358334
| 16>  H  -1.309000 2.106000 -0.012334
| 17>  H  1.088000 2.140000 0.622666
| 18>  H  2.397000 0.034000 0.634666
| 19>  H  1.309000 -2.106000 0.012666
| 20>  H  -1.088000 -2.140000 -0.622334
| 21>  H  -2.397000 -0.034000 -0.635334
| 22> *
| 23> %geom Constraints
| 24>   {C 0 C}
| 25>   {C 1 C}
| 26>   {C 2 C}
| 27>   {C 3 C}
| 28>   {C 4 C}
| 29>   {C 5 C}
| 30>   {C 6 C}
| 31>   {C 7 C}
| 32>   {C 8 C}
| 33>   {C 9 C}
| 34>   {C 10 C}
| 35>   {C 11 C}
| 36>  end #Constraints
| 37>  invertConstraints true
| 38>  end #geom
| 39> 
| 40>                          ****END OF INPUT****
================================================================================

                       ****************************
                       * Single Point Calculation *
                       ****************************

---------------------------------
CARTESIAN COORDINATES (ANGSTROEM)
---------------------------------
  C     -0.739000    1.189000   -0.007334
  C      0.614000    1.208000    0.351666
  C      1.353000    0.019000    0.358666
  C      0.739000   -1.189000    0.006666
  C     -0.614000   -1.208000   -0.351334
  C     -1.353000   -0.019000   -0.358334
  H     -1.309000    2.106000   -0.012334
  H      1.088000    2.140000    0.622666
  H      2.397000    0.034000    0.634666
  H      1.309000   -2.106000    0.012666
  H     -1.088000   -2.140000   -0.622334
  H     -2.397000   -0.034000   -0.635334

----------------------------
CARTESIAN COORDINATES (A.U.)
----------------------------
  NO LB      ZA    FRAG    MASS        X           Y           Z
   0 C     6.0000    0    12.011         -1.396507612967805          2.246884373232368         -0.013859251466178
   1 C     6.0000    0    12.011          1.160291846227649          2.282789169776872          0.664552430611551
   2 C     6.0000    0    12.011          2.556799459195453          0.035904796544504          0.677780513549000
   3 C     6.0000    0    12.011          1.396507612967805         -2.246884373232368          0.012596914408719
   4 C     6.0000    0    12.011         -1.160291846227649         -2.282789169776872         -0.663925041535089
   5 C     6.0000    0    12.011         -2.556799459195453         -0.035904796544504         -0.677153124472538
   6 H     1.0000    0     1.008         -2.473651509302918          3.979763238038156         -0.023307882135785
   7 H     1.0000    0     1.008          2.056022033706322          4.044013926591479          1.176668212904210
   8 H     1.0000    0     1.008          4.529673543009240          0.064250688553323          1.199344926511265
   9 H     1.0000    0     1.008          2.473651509302918         -3.979763238038156          0.023935271212247
  10 H     1.0000    0     1.008         -2.056022033706322         -4.044013926591479         -1.176040823827748
  11 H     1.0000    0     1.008         -4.529673543009240         -0.064250688553323         -1.200607263568724

--------------------------------
INTERNAL COORDINATES (ANGSTROEM)
--------------------------------
 C      0   0   0   0.000000     0.000     0.000
 C      1   0   0   1.399947     0.000     0.000
 C      2   1   0   1.399961   119.995     0.000
 C      3   2   1   1.400059   120.003     0.000
 C      4   3   2   1.399691   119.996   359.955
 C      1   2   3   1.399807   119.996     0.045
 H      1   2   3   1.079729   119.991   179.976
 H      2   1   3   1.080158   120.010   179.962
 H      3   2   1   1.079971   119.985   179.938
 H      4   3   2   1.079734   119.991   180.034
 H      5   4   3   1.080158   120.005   180.038
 H      6   1   2   1.080227   120.013   179.996

---------------------------
INTERNAL COORDINATES (A.U.)
---------------------------
 C      0   0   0   0.000000     0.000     0.000
 C      1   0   0   2.645516     0.000     0.000
 C      2   1   0   2.645543   119.995     0.000
 C      3   2   1   2.645727   120.003     0.000
 C      4   3   2   2.645032   119.996   359.955
 C      1   2   3   2.645253   119.996     0.045
 H      1   2   3   2.040391   119.991   179.976
 H      2   1   3   2.041203   120.010   179.962
 H      3   2   1   2.040849   119.985   179.938
 H      4   3   2   2.040401   119.991   180.034
 H      5   4   3   2.041203   120.005   180.038
 H      6   1   2   2.041333   120.013   179.996

---------------------
BASIS SET INFORMATION
---------------------
There are 2 groups of distinct atoms

 Group   1 Type C   : 6s3p contracted to 3s2p pattern {321/21}
 Group   2 Type H   : 3s contracted to 2s pattern {21}

Atom   0C    basis set group =>   1
Atom   1C    basis set group =>   1
Atom   2C    basis set group =>   1
Atom   3C    basis set group =>   1
Atom   4C    basis set group =>   1
Atom   5C    basis set group =>   1
Atom   6H    basis set group =>   2
Atom   7H    basis set group =>   2
Atom   8H    basis set group =>   2
Atom   9H    basis set group =>   2
Atom  10H    basis set group =>   2
Atom  11H    basis set group =>   2

-------------------------
BASIS SET IN INPUT FORMAT
-------------------------

 # Basis set for element : H 
 NewGTO H 
 S 2 
   1       5.4471780000      0.1562849807
   2       0.8245470000      0.9046908881
 S 1 
   1       0.1831920000      1.0000000000
  end;

 # Basis set for element : C 
 NewGTO C 
 S 3 
   1     172.2560000000      0.0617669074
   2      25.9109000000      0.3587940429
   3       5.5333500000      0.7007130837
 S 2 
   1       3.6649800000     -0.3958951621
   2       0.7705450000      1.2158343557
 S 1 
   1       0.1958570000      1.0000000000
 P 2 
   1       3.6649800000      0.2364599466
   2       0.7705450000      0.8606188057
 P 1 
   1       0.1958570000      1.0000000000
  end;

------------------------------------------------------------------------------
                           ORCA GTO INTEGRAL CALCULATION
------------------------------------------------------------------------------

                         BASIS SET STATISTICS AND STARTUP INFO

 # of primitive gaussian shells          ...   72
 # of primitive gaussian functions       ...  108
 # of contracted shell                   ...   42
 # of contracted basis functions         ...   66
 Highest angular momentum                ...    1
 Maximum contraction depth               ...    3
 Integral package used                   ... LIBINT
 Integral threshhold            Thresh   ...  1.000e-10
 Primitive cut-off              TCut     ...  1.000e-11


                              INTEGRAL EVALUATION

 One electron integrals                  ... done
 Pre-screening matrix                    ... done
 Shell pair data                         ... done (   0.000 sec)

-------------------------------------------------------------------------------
                                 ORCA SCF
-------------------------------------------------------------------------------

------------
SCF SETTINGS
------------
Hamiltonian:
 Ab initio Hamiltonian  Method          .... Hartree-Fock(GTOs)


General Settings:
 Integral files         IntName         .... benzen_orca_an
 Hartree-Fock type      HFTyp           .... UHF
 Total Charge           Charge          ....   -1
 Multiplicity           Mult            ....    2
 Number of Electrons    NEL             ....   43
 Basis Dimension        Dim             ....   66
 Nuclear Repulsion      ENuc            ....    202.9797467944 Eh

Convergence Acceleration:
 DIIS                   CNVDIIS         .... on
   Start iteration      DIISMaxIt       ....    12
   Startup error        DIISStart       ....  0.200000
   # of expansion vecs  DIISMaxEq       ....     5
   Bias factor          DIISBfac        ....   1.050
   Max. coefficient     DIISMaxC        ....  10.000
 Newton-Raphson         CNVNR           .... off
 SOSCF                  CNVSOSCF        .... off
 Level Shifting         CNVShift        .... on
   Level shift para.    LevelShift      ....    0.2500
   Turn off err/grad.   ShiftErr        ....    0.0010
 Zerner damping         CNVZerner       .... off
 Static damping         CNVDamp         .... on
   Fraction old density DampFac         ....    0.7000
   Max. Damping (<1)    DampMax         ....    0.9800
   Min. Damping (>=0)   DampMin         ....    0.0000
   Turn off err/grad.   DampErr         ....    0.1000
 Fernandez-Rico         CNVRico         .... off

SCF Procedure:
 Maximum # iterations   MaxIter         ....   125
 SCF integral mode      SCFMode         .... Direct
   Integral package                     .... LIBINT
 Reset frequeny         DirectResetFreq ....    20
 Integral Threshold     Thresh          ....  1.000e-10 Eh
 Primitive CutOff       TCut            ....  1.000e-11 Eh

Convergence Tolerance:
 Convergence Check Mode ConvCheckMode   .... Total+1el-Energy
 Energy Change          TolE            ....  1.000e-06 Eh
 1-El. energy change                    ....  1.000e-03 Eh
 DIIS Error             TolErr          ....  1.000e-06


Diagonalization of the overlap matrix:
Smallest eigenvalue                        ... 1.824e-03
Time for diagonalization                   ...    0.001 sec
Threshold for overlap eigenvalues          ... 1.000e-08
Number of eigenvalues below threshold      ... 0
Time for construction of square roots      ...    0.000 sec
Total time needed                          ...    0.001 sec

-------------------
DFT GRID GENERATION
-------------------

General Integration Accuracy     IntAcc      ...  4.340
Radial Grid Type                 RadialGrid  ... Gauss-Chebyshev
Angular Grid (max. acc.)         AngularGrid ... Lebedev-110
Angular grid pruning method      GridPruning ... 3 (G Style)
Weight generation scheme         WeightScheme... Becke
Basis function cutoff            BFCut       ...    1.0000e-10
Integration weight cutoff        WCut        ...    1.0000e-14
Grids for H and He will be reduced by one unit

# of grid points (after initial pruning)     ...  14700 (   0.0 sec)
# of grid points (after weights+screening)   ...  13826 (   0.0 sec)
nearest neighbour list constructed           ...    0.0 sec
Grid point re-assignment to atoms done       ...    0.0 sec
Grid point division into batches done        ...    0.0 sec
Reduced shell lists constructed in    0.1 sec

Total number of grid points                  ...    13826
Total number of batches                      ...      222
Average number of points per batch           ...       62
Average number of grid points per atom       ...     1152
Average number of shells per batch           ...    30.29 (72.11%)
Average number of basis functions per batch  ...    50.77 (76.93%)
Average number of large shells per batch     ...    24.87 (82.11%)
Average number of large basis fcns per batch ...    42.51 (83.73%)
Maximum spatial batch extension              ...  18.99, 20.20, 22.45 au
Average spatial batch extension              ...   4.03,  4.03,  5.00 au

Time for grid setup =    0.115 sec

------------------------------
INITIAL GUESS: MODEL POTENTIAL
------------------------------
Loading Hartree-Fock densities                     ... done
Calculating cut-offs                               ... done
Setting up the integral package                    ... done
Initializing the effective Hamiltonian             ... done
Starting the Coulomb interaction                   ... done (   0.0 sec)
Reading the grid                                   ... done
Mapping shells                                     ... done
Starting the XC term evaluation                    ... done (   0.1 sec)
Transforming the Hamiltonian                       ... done (   0.0 sec)
Diagonalizing the Hamiltonian                      ... done (   0.0 sec)
Back transforming the eigenvectors                 ... done (   0.0 sec)
Now organizing SCF variables                       ... done
                      ------------------
                      INITIAL GUESS DONE (   0.3 sec)
                      ------------------
--------------
SCF ITERATIONS
--------------
ITER       Energy         Delta-E        Max-DP      RMS-DP      [F,P]     Damp
               ***  Starting incremental Fock matrix formation  ***
  0   -228.9803087539   0.000000000000 0.03971960  0.00248214  0.2007315 0.7000
  1   -229.0914502718  -0.111141517932 0.03214322  0.00200245  0.1314761 0.7000
                               ***Turning on DIIS***
  2   -229.1603229599  -0.068872688083 0.07081651  0.00441906  0.0827358 0.0000
  3   -228.8166877506   0.343635209306 0.01364340  0.00119840  0.0285406 0.0000
  4   -229.2779224786  -0.461234728028 0.00808063  0.00043434  0.0027977 0.0000
  5   -229.3033881526  -0.025465674009 0.00615924  0.00031022  0.0017317 0.0000
  6   -229.3048626863  -0.001474533656 0.00452619  0.00022656  0.0011262 0.0000
  7   -229.3038493365   0.001013349837 0.00465069  0.00027293  0.0008100 0.0000
  8   -229.3044036033  -0.000554266791 0.00234734  0.00010771  0.0005389 0.0000
  9   -229.3041117638   0.000291839451 0.00271336  0.00011544  0.0005165 0.0000
 10   -229.3042757816  -0.000164017770 0.00084789  0.00003658  0.0005035 0.0000
 11   -229.3042282544   0.000047527150 0.00143559  0.00006059  0.0005146 0.0000
 12   -229.3042561266  -0.000027872178 0.00099445  0.00004708  0.0005344 0.0000
                 **** Energy Check signals convergence ****

               *****************************************************
               *                     SUCCESS                       *
               *           SCF CONVERGED AFTER  13 CYCLES          *
               *****************************************************


----------------
TOTAL SCF ENERGY
----------------

Total Energy       :         -229.30425567 Eh           -6239.68602 eV

Components:
Nuclear Repulsion  :          202.97974679 Eh            5523.35971 eV
Electronic Energy  :         -432.28400247 Eh          -11763.04573 eV

One Electron Energy:         -720.05007866 Eh          -19593.55876 eV
Two Electron Energy:          287.76607619 Eh            7830.51303 eV

Virial components:
Potential Energy   :         -458.47612830 Eh          -12475.76971 eV
Kinetic Energy     :          229.17187263 Eh            6236.08369 eV
Virial Ratio       :            2.00057766


---------------
SCF CONVERGENCE
---------------

  Last Energy change         ...    4.5384e-07  Tolerance :   1.0000e-06
  Last MAX-Density change    ...    1.5761e-03  Tolerance :   1.0000e-05
  Last RMS-Density change    ...    6.7373e-05  Tolerance :   1.0000e-06
  Last DIIS Error            ...    5.3426e-04  Tolerance :   1.0000e-06

             **** THE GBW FILE WAS UPDATED (benzen_orca_an.gbw) ****
             **** DENSITY FILE WAS UPDATED (benzen_orca_an.scfp.tmp) ****
             **** ENERGY FILE WAS UPDATED (benzen_orca_an.en.tmp) ****
----------------------
UHF SPIN CONTAMINATION
----------------------

Expectation value of <S**2>     :     0.822427
Ideal value S*(S+1) for S=0.5   :     0.750000
Deviation                       :     0.072427

----------------
ORBITAL ENERGIES
----------------
                 SPIN UP ORBITALS
  NO   OCC          E(Eh)            E(eV) 
   0   1.0000     -10.959060      -298.2112 
   1   1.0000     -10.958884      -298.2064 
   2   1.0000     -10.932190      -297.4800 
   3   1.0000     -10.932025      -297.4755 
   4   1.0000     -10.916396      -297.0502 
   5   1.0000     -10.916219      -297.0454 
   6   1.0000      -0.914502       -24.8849 
   7   1.0000      -0.784657       -21.3516 
   8   1.0000      -0.783876       -21.3304 
   9   1.0000      -0.608289       -16.5524 
  10   1.0000      -0.592782       -16.1304 
  11   1.0000      -0.486295       -13.2328 
  12   1.0000      -0.428517       -11.6605 
  13   1.0000      -0.381719       -10.3871 
  14   1.0000      -0.366238        -9.9658 
  15   1.0000      -0.354374        -9.6430 
  16   1.0000      -0.303114        -8.2481 
  17   1.0000      -0.264951        -7.2097 
  18   1.0000      -0.261332        -7.1112 
  19   1.0000      -0.172520        -4.6945 
  20   1.0000      -0.142661        -3.8820 
  21   1.0000       0.079710         2.1690 
  22   0.0000       0.377845        10.2817 
  23   0.0000       0.446260        12.1433 
  24   0.0000       0.507678        13.8146 
  25   0.0000       0.517199        14.0737 
  26   0.0000       0.534176        14.5357 
  27   0.0000       0.550806        14.9882 
  28   0.0000       0.552662        15.0387 
  29   0.0000       0.555710        15.1216 
  30   0.0000       0.712847        19.3976 
  31   0.0000       0.720316        19.6008 
  32   0.0000       0.730184        19.8693 
  33   0.0000       0.733268        19.9533 
  34   0.0000       1.015088        27.6219 
  35   0.0000       1.030933        28.0531 
  36   0.0000       1.099932        29.9307 
  37   0.0000       1.123610        30.5750 
  38   0.0000       1.173905        31.9436 
  39   0.0000       1.215555        33.0769 
  40   0.0000       1.228655        33.4334 
  41   0.0000       1.263392        34.3786 
  42   0.0000       1.270814        34.5806 
  43   0.0000       1.301894        35.4263 
  44   0.0000       1.302625        35.4462 
  45   0.0000       1.302773        35.4503 
  46   0.0000       1.323490        36.0140 
  47   0.0000       1.364039        37.1174 
  48   0.0000       1.382005        37.6063 
  49   0.0000       1.501220        40.8503 
  50   0.0000       1.519764        41.3549 
  51   0.0000       1.534467        41.7550 
  52   0.0000       1.621042        44.1108 
  53   0.0000       1.630474        44.3675 
  54   0.0000       1.633384        44.4466 
  55   0.0000       1.768387        48.1203 
  56   0.0000       1.773077        48.2479 
  57   0.0000       1.813694        49.3531 
  58   0.0000       1.921439        52.2850 
  59   0.0000       1.934783        52.6481 
  60   0.0000       1.942008        52.8447 
  61   0.0000       2.036043        55.4036 
  62   0.0000       2.043993        55.6199 
  63   0.0000       2.389726        65.0277 
  64   0.0000       2.393048        65.1181 
  65   0.0000       2.973957        80.9255 

                 SPIN DOWN ORBITALS
  NO   OCC          E(Eh)            E(eV) 
   0   1.0000     -10.964262      -298.3527 
   1   1.0000     -10.964083      -298.3479 
   2   1.0000     -10.926828      -297.3341 
   3   1.0000     -10.926643      -297.3291 
   4   1.0000     -10.904566      -296.7283 
   5   1.0000     -10.904368      -296.7229 
   6   1.0000      -0.898890       -24.4601 
   7   1.0000      -0.781073       -21.2541 
   8   1.0000      -0.750804       -20.4304 
   9   1.0000      -0.593296       -16.1444 
  10   1.0000      -0.574707       -15.6386 
  11   1.0000      -0.481347       -13.0981 
  12   1.0000      -0.417355       -11.3568 
  13   1.0000      -0.376316       -10.2401 
  14   1.0000      -0.366138        -9.9631 
  15   1.0000      -0.346860        -9.4386 
  16   1.0000      -0.259896        -7.0721 
  17   1.0000      -0.258898        -7.0450 
  18   1.0000      -0.258381        -7.0309 
  19   1.0000      -0.121369        -3.3026 
  20   1.0000      -0.061187        -1.6650 
  21   0.0000       0.364018         9.9054 
  22   0.0000       0.417697        11.3661 
  23   0.0000       0.448047        12.1920 
  24   0.0000       0.506398        13.7798 
  25   0.0000       0.522463        14.2169 
  26   0.0000       0.554897        15.0995 
  27   0.0000       0.558087        15.1863 
  28   0.0000       0.569131        15.4868 
  29   0.0000       0.610701        16.6180 
  30   0.0000       0.720530        19.6066 
  31   0.0000       0.729381        19.8475 
  32   0.0000       0.733355        19.9556 
  33   0.0000       0.741360        20.1734 
  34   0.0000       1.019824        27.7508 
  35   0.0000       1.050512        28.5859 
  36   0.0000       1.102856        30.0102 
  37   0.0000       1.124059        30.5872 
  38   0.0000       1.193588        32.4792 
  39   0.0000       1.227901        33.4129 
  40   0.0000       1.233190        33.5568 
  41   0.0000       1.270266        34.5657 
  42   0.0000       1.303628        35.4735 
  43   0.0000       1.309368        35.6297 
  44   0.0000       1.309823        35.6421 
  45   0.0000       1.328020        36.1373 
  46   0.0000       1.362899        37.0864 
  47   0.0000       1.365148        37.1476 
  48   0.0000       1.414006        38.4771 
  49   0.0000       1.504355        40.9356 
  50   0.0000       1.518981        41.3336 
  51   0.0000       1.540779        41.9267 
  52   0.0000       1.623081        44.1663 
  53   0.0000       1.634114        44.4665 
  54   0.0000       1.636877        44.5417 
  55   0.0000       1.769724        48.1566 
  56   0.0000       1.780741        48.4564 
  57   0.0000       1.819619        49.5144 
  58   0.0000       1.926043        52.4103 
  59   0.0000       1.937338        52.7176 
  60   0.0000       1.951212        53.0952 
  61   0.0000       2.036831        55.4250 
  62   0.0000       2.055596        55.9356 
  63   0.0000       2.392536        65.1042 
  64   0.0000       2.408884        65.5491 
  65   0.0000       2.982977        81.1709 
------------------
MOLECULAR ORBITALS
------------------
                      0         1         2         3         4         5   
                 -10.95906 -10.95888 -10.93219 -10.93202 -10.91640 -10.91622
                   1.00000   1.00000   1.00000   1.00000   1.00000   1.00000
                  --------  --------  --------  --------  --------  --------
  0C   1s         0.708953 -0.687235  0.003323  0.007034 -0.003614  0.004608
  0C   2s         0.072029 -0.068280 -0.002698 -0.002355  0.003215 -0.001904
  0C   3s        -0.075774  0.055240  0.034081  0.017768 -0.036180  0.009844
  0C   1pz        0.000007 -0.000003 -0.000347 -0.000081 -0.000368 -0.000017
  0C   1px        0.000494 -0.000174 -0.001129 -0.000896 -0.000691 -0.000698
  0C   1py       -0.000788  0.000286 -0.000324  0.000984 -0.001185  0.001057
  0C   2pz       -0.000137  0.000070  0.002206  0.002158  0.002461 -0.001399
  0C   2px       -0.012590  0.005689  0.016606  0.010919 -0.004153 -0.001387
  0C   2py        0.020252 -0.009122 -0.013739 -0.004528  0.022599 -0.006576
  1C   1s        -0.004759  0.007201  0.641517  0.750045  0.007333  0.018105
  1C   2s        -0.003794  0.003509  0.065670  0.075105 -0.001874 -0.001516
  1C   3s         0.036715 -0.015959 -0.069245 -0.061434  0.030639  0.019797
  1C   1pz        0.000287 -0.000335 -0.000251 -0.000136 -0.000135  0.000286
  1C   1px        0.001210 -0.000637 -0.000440 -0.000246 -0.000953  0.000275
  1C   1py       -0.000194 -0.001060 -0.000852 -0.000446  0.000734  0.001361
  1C   2pz       -0.006677  0.002982  0.005604  0.003206 -0.003688 -0.001672
  1C   2px       -0.016473  0.009073  0.009696  0.005470 -0.002507  0.001606
  1C   2py       -0.014911  0.003786  0.019366  0.011195 -0.019218 -0.013297
  2C   1s         0.003573  0.005414 -0.009671 -0.017815  0.571198  0.804721
  2C   2s         0.003579  0.003394 -0.003931 -0.004864  0.058769  0.080892
  2C   3s        -0.036110 -0.016709  0.034609  0.019876 -0.062010 -0.066207
  2C   1pz       -0.000267 -0.000345 -0.000089  0.000313 -0.000260 -0.000166
  2C   1px       -0.000319 -0.001232  0.000377  0.001323 -0.000954 -0.000598
  2C   1py       -0.001169 -0.000135 -0.001193 -0.000214 -0.000052 -0.000042
  2C   2pz        0.006613  0.003132 -0.004200 -0.001582  0.005240  0.003700
  2C   2px        0.020379  0.007870 -0.020129 -0.010066  0.019705  0.013845
  2C   2py        0.007996  0.006752  0.006938  0.006749  0.000351  0.000338
  3C   1s        -0.687544 -0.708653 -0.004377  0.006429  0.001885  0.005543
  3C   2s        -0.069901 -0.070457  0.003033 -0.001908 -0.002403 -0.002858
  3C   3s         0.074044  0.057537 -0.036443  0.012264  0.030884  0.021232
  3C   1pz        0.000005 -0.000001 -0.000357  0.000026 -0.000352 -0.000105
  3C   1px        0.000489  0.000190 -0.001257  0.000711 -0.000882  0.000431
  3C   1py       -0.000778 -0.000309 -0.000167 -0.001023 -0.000768 -0.001387
  3C   2pz       -0.000108 -0.000054  0.002507 -0.001788  0.001867  0.002136
  3C   2px       -0.012427 -0.006083  0.018114 -0.008209 -0.004383 -0.000065
  3C   2py        0.019952  0.009732 -0.014276  0.002341  0.019149  0.013663
  4C   1s         0.004534  0.007344 -0.750419  0.641077 -0.012948  0.014667
  4C   2s         0.003687  0.003626 -0.076559  0.063972  0.002265 -0.000812
  4C   3s        -0.036225 -0.017090  0.077980 -0.049925 -0.035464  0.008562
  4C   1pz        0.000277  0.000343 -0.000267  0.000094 -0.000033 -0.000315
  4C   1px        0.001191  0.000676 -0.000474  0.000175 -0.000808 -0.000574
  4C   1py       -0.000227  0.001054 -0.000911  0.000308  0.001142 -0.001042
  4C   2pz       -0.006581 -0.003182  0.006022 -0.002289 -0.004025  0.000361
  4C   2px       -0.016199 -0.009581  0.010442 -0.003902 -0.001841 -0.002344
  4C   2py       -0.014787 -0.004241  0.020875 -0.008050 -0.022534  0.006204
  5C   1s        -0.003737  0.005304  0.012338 -0.016136 -0.805041  0.570746
  5C   2s        -0.003684  0.003285  0.004641 -0.004198 -0.082200  0.056926
  5C   3s         0.036625 -0.015606 -0.037291  0.014257  0.080424 -0.042006
  5C   1pz       -0.000279  0.000337 -0.000039 -0.000324 -0.000297  0.000068
  5C   1px       -0.000357  0.001222  0.000578 -0.001247 -0.001100  0.000251
  5C   1py       -0.001175  0.000101 -0.001211  0.000026 -0.000064  0.000023
  5C   2pz        0.006708 -0.002926 -0.004389  0.000912  0.006153 -0.001753
  5C   2px        0.020614 -0.007244 -0.021452  0.006814  0.023183 -0.006565
  5C   2py        0.008211 -0.006510  0.007899 -0.005587  0.000454 -0.000207
  6H   1s        -0.001916  0.001460  0.000383 -0.000302 -0.000280 -0.000387
  6H   2s         0.002704 -0.005965  0.004324  0.003111 -0.004767  0.002108
  7H   1s         0.000395  0.000322 -0.001822 -0.001706  0.000385 -0.000293
  7H   2s         0.004630 -0.002601  0.002169  0.006143  0.003875  0.003595
  8H   1s        -0.000406  0.000312  0.000423 -0.000254 -0.001678 -0.001928
  8H   2s        -0.004561 -0.002727  0.004189  0.002930  0.001735  0.006436
  9H   1s         0.001870  0.001518 -0.000332 -0.000357  0.000392 -0.000273
  9H   2s        -0.002520 -0.006045 -0.004757  0.002402  0.003802  0.003562
 10H   1s        -0.000405  0.000310  0.002065 -0.001402 -0.000267 -0.000404
 10H   2s        -0.004549 -0.002742 -0.003097  0.005729 -0.004845  0.002114
 11H   1s         0.000396  0.000325 -0.000379 -0.000317  0.002218 -0.001263
 11H   2s         0.004641 -0.002585 -0.004591  0.002242 -0.003761  0.005496
                      6         7         8         9        10        11   
                  -0.91450  -0.78466  -0.78388  -0.60829  -0.59278  -0.48630
                   1.00000   1.00000   1.00000   1.00000   1.00000   1.00000
                  --------  --------  --------  --------  --------  --------
  0C   1s        -0.096348  0.002924 -0.133483 -0.022361  0.103734 -0.001081
  0C   2s         0.106863 -0.004470  0.143175  0.021617 -0.107272 -0.003020
  0C   3s         0.174888  0.004477  0.285342  0.074344 -0.315449  0.011328
  0C   1pz        0.000389  0.029776  0.001279  0.049672  0.010738 -0.001954
  0C   1px        0.028708  0.081997  0.014141  0.130337  0.063560 -0.091949
  0C   1py       -0.045684  0.052307 -0.015826  0.097936 -0.037577  0.141103
  0C   2pz        0.000508  0.002817  0.000747  0.018330  0.004250 -0.000904
  0C   2px        0.005016  0.011016 -0.002418  0.049855  0.023425 -0.056641
  0C   2py       -0.005289 -0.000493  0.008536  0.033173 -0.011899  0.088818
  1C   1s        -0.097813 -0.115219 -0.072844 -0.081084 -0.070383 -0.008119
  1C   2s         0.106786  0.121168  0.073073  0.078088  0.071844  0.003479
  1C   3s         0.190271  0.263953  0.198737  0.269421  0.215094  0.040386
  1C   1pz       -0.013691  0.002423 -0.015453 -0.006660  0.027422  0.043342
  1C   1px       -0.024597  0.033000 -0.077803 -0.079975  0.123155  0.083777
  1C   1py       -0.045795 -0.039544  0.031811  0.091359 -0.031341  0.135510
  1C   2pz       -0.002678  0.000033 -0.006413 -0.005710  0.009732  0.025688
  1C   2px       -0.007218 -0.000210 -0.018287 -0.034777  0.045824  0.047646
  1C   2py       -0.004865  0.000668 -0.010036  0.021917 -0.014583  0.083684
  2C   1s        -0.098521 -0.120992  0.066620  0.103251 -0.032663 -0.010596
  2C   2s         0.107305  0.124495 -0.066638 -0.099146  0.033061  0.005304
  2C   3s         0.196641  0.303104 -0.185482 -0.344004  0.100437  0.053134
  2C   1pz       -0.013903  0.001070  0.014614 -0.004488  0.026017  0.042788
  2C   1px       -0.051885 -0.021172  0.005255 -0.048605  0.004276  0.155850
  2C   1py       -0.001571  0.042323  0.083936  0.052343  0.158109  0.011735
  2C   2pz       -0.002233 -0.003053  0.006085  0.002775  0.009418  0.025104
  2C   2px       -0.006720 -0.011867  0.016662 -0.001172  0.000069  0.092801
  2C   2py       -0.002810  0.000595  0.010657  0.019366  0.059739  0.004612
  3C   1s        -0.096356 -0.002948  0.133478 -0.022323  0.103747 -0.001040
  3C   2s         0.106870  0.004487 -0.143168  0.021588 -0.107282 -0.003063
  3C   3s         0.174913 -0.004384 -0.285338  0.074208 -0.315509  0.011191
  3C   1pz       -0.000347  0.029780  0.001212 -0.049646 -0.010823  0.001964
  3C   1px       -0.028808  0.082011  0.014274 -0.130376 -0.063516  0.091968
  3C   1py        0.045623  0.052300 -0.015735 -0.097868  0.037625 -0.141062
  3C   2pz       -0.000461  0.002819  0.000676 -0.018314 -0.004311  0.000906
  3C   2px       -0.005023  0.011011 -0.002387 -0.049881 -0.023394  0.056636
  3C   2py        0.005290 -0.000479  0.008558 -0.033148  0.011921 -0.088803
  4C   1s        -0.097888  0.115166  0.072892 -0.081030 -0.070388 -0.008151
  4C   2s         0.106871 -0.121114 -0.073128  0.078043  0.071847  0.003508
  4C   3s         0.190418 -0.263844 -0.198869  0.269236  0.215134  0.040510
  4C   1pz        0.013674  0.002453 -0.015439  0.006629 -0.027426 -0.043356
  4C   1px        0.024632  0.032973 -0.077880  0.080004 -0.123235 -0.083894
  4C   1py        0.045819 -0.039513  0.031851 -0.091359  0.031377 -0.135592
  4C   2pz        0.002660  0.000052 -0.006369  0.005676 -0.009745 -0.025705
  4C   2px        0.007234 -0.000222 -0.018312  0.034779 -0.045845 -0.047713
  4C   2py        0.004864  0.000670 -0.010033 -0.021936  0.014603 -0.083746
  5C   1s        -0.098586  0.120920 -0.066683  0.103231 -0.032673 -0.010574
  5C   2s         0.107379 -0.124423  0.066709 -0.099132  0.033065  0.005277
  5C   3s         0.196789 -0.302956  0.185654 -0.343938  0.100489  0.053073
  5C   1pz        0.013877  0.001109  0.014597  0.004544 -0.026008 -0.042784
  5C   1px        0.051934 -0.021188  0.005284  0.048515 -0.004269 -0.155830
  5C   1py        0.001584  0.042292  0.084019 -0.052311 -0.158193 -0.011778
  5C   2pz        0.002199 -0.003010  0.006040 -0.002721 -0.009424 -0.025107
  5C   2px        0.006749 -0.011886  0.016682  0.001152 -0.000064 -0.092803
  5C   2py        0.002820  0.000585  0.010679 -0.019361 -0.059768 -0.004641
  6H   1s         0.036977 -0.001631  0.077321  0.024540 -0.118579  0.104270
  6H   2s        -0.001298  0.001058  0.021512  0.016079 -0.076243  0.089515
  7H   1s         0.035348  0.062536  0.039860  0.080114  0.071035  0.103359
  7H   2s        -0.002789  0.017088  0.015634  0.051045  0.043932  0.087924
  8H   1s         0.034455  0.063665 -0.035299 -0.096261  0.030660  0.101026
  8H   2s        -0.004087  0.019440 -0.013631 -0.060061  0.018399  0.085496
  9H   1s         0.036981  0.001660 -0.077318  0.024451 -0.118602  0.104216
  9H   2s        -0.001296 -0.001044 -0.021512  0.016022 -0.076260  0.089476
 10H   1s         0.035378 -0.062514 -0.039890  0.080074  0.071046  0.103468
 10H   2s        -0.002789 -0.017088 -0.015642  0.051012  0.043943  0.088008
 11H   1s         0.034460 -0.063599  0.035309 -0.096182  0.030665  0.100982
 11H   2s        -0.004077 -0.019437  0.013636 -0.060024  0.018411  0.085484
                     12        13        14        15        16        17   
                  -0.42852  -0.38172  -0.36624  -0.35437  -0.30311  -0.26495
                   1.00000   1.00000   1.00000   1.00000   1.00000   1.00000
                  --------  --------  --------  --------  --------  --------
  0C   1s         0.056427 -0.001055  0.034549 -0.009371  0.000047  0.012114
  0C   2s        -0.058209  0.000741 -0.038676  0.010389 -0.000053 -0.012838
  0C   3s        -0.186630  0.003809 -0.098295  0.027726 -0.000142 -0.050684
  0C   1pz        0.000225  0.071801 -0.000832 -0.017394  0.148598  0.012387
  0C   1px        0.071792  0.205463 -0.119226 -0.025575 -0.039302 -0.054113
  0C   1py       -0.118243  0.113158  0.193983 -0.067601 -0.023295  0.170112
  0C   2pz        0.000581  0.045080 -0.000086 -0.008391  0.143968  0.008540
  0C   2px        0.062506  0.129329 -0.083195 -0.007663 -0.038041 -0.073203
  0C   2py       -0.100563  0.070517  0.138508 -0.040293 -0.022556  0.177542
  1C   1s        -0.060705  0.000479  0.010158  0.023409 -0.000009 -0.007546
  1C   2s         0.060192 -0.000973 -0.013002 -0.026678  0.000017  0.009379
  1C   3s         0.204579 -0.001824 -0.021026 -0.064577  0.000023  0.025809
  1C   1pz        0.022609 -0.041851  0.050643  0.034722  0.176695 -0.004750
  1C   1px        0.034443 -0.216269  0.112385  0.021579 -0.046199  0.096884
  1C   1py        0.086181  0.095544  0.134144  0.184994 -0.027849 -0.191083
  1C   2pz        0.022192 -0.026029  0.036663  0.027175  0.169134 -0.015642
  1C   2px        0.036344 -0.133234  0.075736  0.025678 -0.044294  0.047880
  1C   2py        0.080379  0.057257  0.106537  0.130091 -0.026631 -0.178305
  2C   1s         0.061717  0.000409 -0.000349  0.020547 -0.000032 -0.003691
  2C   2s        -0.059827 -0.000600  0.002005 -0.025136  0.000041  0.004919
  2C   3s        -0.212378 -0.001847 -0.005934 -0.049838  0.000113  0.010830
  2C   1pz       -0.019527 -0.035075 -0.035491  0.056331  0.196679  0.015052
  2C   1px       -0.077524  0.004011 -0.081831  0.235479 -0.051793 -0.071514
  2C   1py        0.005027 -0.229083 -0.088679 -0.034492 -0.030898  0.215629
  2C   2pz       -0.020339 -0.021455 -0.024895  0.043677  0.186354  0.004043
  2C   2px       -0.079035  0.002574 -0.065026  0.178470 -0.049076 -0.075309
  2C   2py        0.002433 -0.140341 -0.049494 -0.019823 -0.029274  0.152195
  3C   1s        -0.056423  0.001047 -0.034548  0.009366  0.000045  0.012128
  3C   2s         0.058202 -0.000750  0.038675 -0.010376 -0.000051 -0.012850
  3C   3s         0.186629 -0.003717  0.098292 -0.027749 -0.000131 -0.050736
  3C   1pz        0.000318  0.071801 -0.000842 -0.017435  0.148687 -0.012745
  3C   1px        0.071913  0.205529 -0.119293 -0.025651 -0.038890  0.054050
  3C   1py       -0.118277  0.113026  0.193875 -0.067574 -0.023491 -0.170224
  3C   2pz        0.000628  0.045081 -0.000080 -0.008412  0.144047 -0.008895
  3C   2px        0.062560  0.129381 -0.083189 -0.007713 -0.037676  0.073151
  3C   2py       -0.100604  0.070409  0.138456 -0.040297 -0.022756 -0.177642
  4C   1s         0.060692 -0.000475 -0.010148 -0.023415 -0.000019 -0.007562
  4C   2s        -0.060184  0.000962  0.012998  0.026686  0.000028  0.009392
  4C   3s        -0.204526  0.001832  0.020981  0.064615  0.000046  0.025879
  4C   1pz        0.022554 -0.041703  0.050605  0.034718  0.176708  0.004479
  4C   1px        0.034339 -0.216371  0.112488  0.021658 -0.046569 -0.096642
  4C   1py        0.086109  0.095701  0.134243  0.184873 -0.027595  0.191091
  4C   2pz        0.022158 -0.025931  0.036645  0.027157  0.169162  0.015320
  4C   2px        0.036274 -0.133272  0.075820  0.025727 -0.044521 -0.047658
  4C   2py        0.080348  0.057398  0.106634  0.130020 -0.026467  0.178359
  5C   1s        -0.061720 -0.000395  0.000335 -0.020527 -0.000038 -0.003707
  5C   2s         0.059829  0.000581 -0.002001  0.025128  0.000048  0.004932
  5C   3s         0.212392  0.001807  0.006010  0.049749  0.000123  0.010890
  5C   1pz       -0.019604 -0.034928 -0.035534  0.056379  0.196829 -0.015253
  5C   1px       -0.077509  0.004106 -0.081977  0.235365 -0.051445  0.071706
  5C   1py        0.005027 -0.229257 -0.088784 -0.034421 -0.031078 -0.215393
  5C   2pz       -0.020404 -0.021352 -0.024942  0.043726  0.186498 -0.004293
  5C   2px       -0.079039  0.002660 -0.065154  0.178400 -0.048756  0.075518
  5C   2py        0.002447 -0.140433 -0.049562 -0.019778 -0.029423 -0.151996
  6H   1s        -0.152631 -0.008529  0.132242 -0.022744  0.000161  0.144555
  6H   2s        -0.124424 -0.009100  0.143854 -0.026261  0.000169  0.161329
  7H   1s         0.119929 -0.017283  0.116377  0.104148  0.000043 -0.097752
  7H   2s         0.091454 -0.017849  0.119168  0.112891  0.000053 -0.106399
  8H   1s        -0.107127 -0.006406 -0.061780  0.149502 -0.000139 -0.047611
  8H   2s        -0.078311 -0.006847 -0.061332  0.156915 -0.000146 -0.050945
  9H   1s         0.152688  0.008682 -0.132197  0.022708  0.000136  0.144586
  9H   2s         0.124481  0.009235 -0.143809  0.026221  0.000137  0.161375
 10H   1s        -0.119845  0.017196 -0.116482 -0.104095 -0.000044 -0.097774
 10H   2s        -0.091372  0.017784 -0.119266 -0.112841 -0.000053 -0.106423
 11H   1s         0.107113  0.006326  0.061899 -0.149441 -0.000205 -0.047688
 11H   2s         0.078337  0.006780  0.061463 -0.156895 -0.000226 -0.051058
                     18        19        20        21        22        23   
                  -0.26133  -0.17252  -0.14266   0.07971   0.37785   0.44626
                   1.00000   1.00000   1.00000   1.00000   0.00000   0.00000
                  --------  --------  --------  --------  --------  --------
  0C   1s         0.001737 -0.000020 -0.000044  0.000024  0.000074 -0.045307
  0C   2s        -0.001275  0.000026  0.000064 -0.000020 -0.000023  0.015205
  0C   3s        -0.010094 -0.000007 -0.000042 -0.000139 -0.000716  0.566096
  0C   1pz       -0.065966 -0.041437 -0.215784  0.058815  0.246173 -0.000664
  0C   1px       -0.199230  0.010913  0.056741 -0.015519 -0.064654 -0.055318
  0C   1py       -0.085453  0.006487  0.033970 -0.009285 -0.038803  0.087029
  0C   2pz       -0.047333 -0.035680 -0.251443  0.120935  0.582542 -0.001261
  0C   2px       -0.149617  0.009335  0.066025 -0.031969 -0.152914 -0.194432
  0C   2py       -0.049892  0.005637  0.039796 -0.019209 -0.091932  0.312642
  1C   1s         0.005614 -0.000009  0.000029 -0.000040  0.000016 -0.042930
  1C   2s        -0.005854  0.000000 -0.000054  0.000054  0.000018  0.013564
  1C   3s        -0.028134  0.000183  0.000076  0.000126 -0.000276  0.538582
  1C   1pz        0.056097  0.171396 -0.203867  0.210105 -0.164354  0.023372
  1C   1px        0.187422 -0.045130  0.053619 -0.055258  0.043141  0.042609
  1C   1py        0.044422 -0.026910  0.032084 -0.033084  0.025807  0.077866
  1C   2pz        0.053343  0.185609 -0.267434  0.415070 -0.374402  0.079346
  1C   2px        0.155024 -0.048898  0.070223 -0.109274  0.098347  0.139793
  1C   2py        0.081199 -0.029207  0.041870 -0.065138  0.058766  0.272207
  2C   1s        -0.006810 -0.000044 -0.000015  0.000062 -0.000003 -0.041914
  2C   2s         0.008504  0.000052  0.000041 -0.000056  0.000043  0.012926
  2C   3s         0.029022  0.000173 -0.000202 -0.000382 -0.000279  0.528756
  2C   1pz       -0.055289  0.273404  0.098801 -0.261021 -0.074495  0.022214
  2C   1px       -0.165846 -0.071753 -0.025927  0.068529  0.019464  0.083391
  2C   1py       -0.073419 -0.043170 -0.015565  0.041156  0.011681  0.002889
  2C   2pz       -0.057855  0.325888  0.137145 -0.507908 -0.167692  0.074600
  2C   2px       -0.189513 -0.085390 -0.035761  0.133179  0.044013  0.282729
  2C   2py       -0.050300 -0.051447 -0.021554  0.080267  0.026352  0.005448
  3C   1s         0.001725  0.000021  0.000049  0.000010  0.000087 -0.045319
  3C   2s        -0.001281 -0.000031 -0.000066  0.000003 -0.000043  0.015223
  3C   3s        -0.009967  0.000020  0.000020 -0.000152 -0.000667  0.566069
  3C   1pz        0.065704  0.041407  0.215820  0.058906  0.246151  0.000991
  3C   1px        0.199180 -0.010877 -0.056744 -0.015428 -0.064719  0.055190
  3C   1py        0.085631 -0.006515 -0.033995 -0.009217 -0.038681 -0.087076
  3C   2pz        0.047056  0.035665  0.251507  0.121090  0.582493  0.002512
  3C   2px        0.149559 -0.009450 -0.066194 -0.031583 -0.153370  0.194301
  3C   2py        0.050095 -0.005535 -0.039380 -0.018930 -0.091301 -0.312744
  4C   1s         0.005576 -0.000003 -0.000015 -0.000018 -0.000003 -0.042934
  4C   2s        -0.005824  0.000010  0.000040  0.000027  0.000037  0.013545
  4C   3s        -0.027993 -0.000120 -0.000136  0.000100 -0.000243  0.539012
  4C   1pz       -0.056249 -0.171337  0.203952  0.210025 -0.164355 -0.023507
  4C   1px       -0.187288  0.044946 -0.053459 -0.055105  0.043188 -0.042676
  4C   1py       -0.044307  0.026951 -0.032055 -0.032997  0.025882 -0.077926
  4C   2pz       -0.053551 -0.185582  0.267426  0.414931 -0.374542 -0.079682
  4C   2px       -0.154901  0.048632 -0.070227 -0.108736  0.098231 -0.139837
  4C   2py       -0.081110  0.029114 -0.042207 -0.065292  0.058838 -0.272406
  5C   1s        -0.006788  0.000031  0.000012  0.000042  0.000003 -0.041958
  5C   2s         0.008496 -0.000041 -0.000034 -0.000031  0.000023  0.012936
  5C   3s         0.028921 -0.000103  0.000183 -0.000370 -0.000154  0.529353
  5C   1pz        0.054939 -0.273337 -0.098905 -0.260934 -0.074489 -0.022507
  5C   1px        0.165924  0.071835  0.025965  0.068575  0.019634 -0.083506
  5C   1py        0.073456  0.042963  0.015527  0.041012  0.011764 -0.002891
  5C   2pz        0.057532 -0.325753 -0.137153 -0.507745 -0.167795 -0.075634
  5C   2px        0.189636  0.085731  0.036211  0.133489  0.044199 -0.283067
  5C   2py        0.050341  0.051188  0.021604  0.079666  0.026451 -0.005357
  6H   1s         0.028961 -0.000025 -0.000018  0.000032  0.000099 -0.025701
  6H   2s         0.032639 -0.000057 -0.000092  0.000120  0.000600 -0.795035
  7H   1s         0.112154 -0.000004  0.000012 -0.000027  0.000058 -0.027879
  7H   2s         0.123488  0.000016  0.000092 -0.000095  0.000340 -0.730410
  8H   1s        -0.141159 -0.000023 -0.000004  0.000103  0.000044 -0.028858
  8H   2s        -0.152999 -0.000088 -0.000081  0.000325  0.000209 -0.702638
  9H   1s         0.028836 -0.000028  0.000022  0.000044  0.000116 -0.025697
  9H   2s         0.032483 -0.000008  0.000099  0.000108  0.000736 -0.795019
 10H   1s         0.112109  0.000013 -0.000022  0.000011  0.000016 -0.027894
 10H   2s         0.123426 -0.000012 -0.000089  0.000037  0.000077 -0.730981
 11H   1s        -0.141179  0.000023  0.000039  0.000072  0.000027 -0.028901
 11H   2s        -0.153076  0.000085  0.000123  0.000233  0.000187 -0.703577
                     24        25        26        27        28        29   
                   0.50768   0.51720   0.53418   0.55081   0.55266   0.55571
                   0.00000   0.00000   0.00000   0.00000   0.00000   0.00000
                  --------  --------  --------  --------  --------  --------
  0C   1s         0.047505 -0.009199 -0.000160 -0.054463 -0.088250 -0.012359
  0C   2s        -0.002079  0.003968  0.000092  0.067708  0.030646  0.003443
  0C   3s        -0.858055  0.116049  0.002206  0.026691  1.295365  0.188418
  0C   1pz        0.000856 -0.005047  0.215876 -0.000376  0.001856 -0.019357
  0C   1px        0.099738 -0.026969 -0.056947 -0.013290 -0.045636 -0.059415
  0C   1py       -0.163794  0.016571 -0.033534  0.020223  0.087650 -0.024837
  0C   2pz        0.009227  0.033639  0.642355 -0.009688  0.010655 -0.112523
  0C   2px        0.429352  0.012314 -0.169752 -0.541648 -0.329425 -0.349781
  0C   2py       -0.664329  0.203158 -0.098293  0.846238  0.615691 -0.134598
  1C   1s         0.020229  0.037360  0.000173  0.059020  0.056000 -0.075346
  1C   2s         0.010673  0.000524 -0.000079 -0.063549 -0.017904  0.021965
  1C   3s        -0.530233 -0.700818 -0.001944 -0.138880 -0.824068  1.122378
  1C   1pz       -0.025287 -0.038955 -0.197736 -0.011514 -0.008834  0.023459
  1C   1px       -0.035543 -0.075424  0.051735 -0.020603  0.012979  0.065103
  1C   1py       -0.098509 -0.125083  0.030945 -0.040193 -0.078321  0.041760
  1C   2pz       -0.087636 -0.142135 -0.581916 -0.275596 -0.072376  0.159533
  1C   2px       -0.203238 -0.205880  0.152212 -0.497834  0.035956  0.413687
  1C   2py       -0.211261 -0.568995  0.089480 -0.923843 -0.520826  0.328838
  2C   1s        -0.010179  0.035441  0.000000 -0.062453  0.036070  0.089443
  2C   2s        -0.009180  0.010567  0.000084  0.060994 -0.011034 -0.024728
  2C   3s         0.324171 -0.812420 -0.001594  0.223947 -0.528689 -1.337211
  2C   1pz        0.014057 -0.043740  0.186467  0.015763 -0.002498 -0.024328
  2C   1px        0.061066 -0.159680 -0.049373  0.060421 -0.041247 -0.079045
  2C   1py       -0.015117 -0.008847 -0.029259  0.001103  0.053226 -0.024318
  2C   2pz        0.049212 -0.135141  0.547384  0.294031 -0.030385 -0.170549
  2C   2px        0.122699 -0.534348 -0.144204  1.103692 -0.293166 -0.570869
  2C   2py        0.102467  0.039157 -0.086095  0.030767  0.297805 -0.137709
  3C   1s        -0.047520  0.009323  0.000112  0.053535 -0.088728 -0.012760
  3C   2s         0.002086 -0.004011 -0.000071 -0.067382  0.031258  0.003953
  3C   3s         0.858219 -0.117825 -0.001601 -0.013204  1.295264  0.188643
  3C   1pz        0.000079 -0.004066 -0.215894 -0.000168 -0.001564  0.019381
  3C   1px        0.099934 -0.027363  0.056423 -0.012475  0.045739  0.059500
  3C   1py       -0.163706  0.016516  0.034289  0.019533 -0.087784  0.024689
  3C   2pz        0.007560  0.036260 -0.642141 -0.008160 -0.009221  0.112694
  3C   2px        0.429976  0.011005  0.167601 -0.536575  0.334543  0.354010
  3C   2py       -0.664081  0.203446  0.103183  0.841053 -0.623127  0.128573
  4C   1s        -0.020187 -0.037330 -0.000026 -0.059061  0.056502 -0.074936
  4C   2s        -0.010700 -0.000533  0.000025  0.063552 -0.018495  0.021495
  4C   3s         0.529892  0.700400  0.000004  0.139321 -0.824471  1.122112
  4C   1pz       -0.024456 -0.039851  0.197701 -0.011962  0.008892 -0.023487
  4C   1px       -0.035806 -0.075060 -0.052036 -0.021175 -0.012803 -0.065001
  4C   1py       -0.098684 -0.124885 -0.031131 -0.039764  0.078617 -0.041531
  4C   2pz       -0.085660 -0.144481  0.581624 -0.276972  0.074543 -0.158141
  4C   2px       -0.203657 -0.204757 -0.152744 -0.501395 -0.031096 -0.410005
  4C   2py       -0.211760 -0.568549 -0.092520 -0.921500  0.528995 -0.322348
  5C   1s         0.010148 -0.035485 -0.000100  0.063423  0.035446  0.088943
  5C   2s         0.009198 -0.010557 -0.000052 -0.061289 -0.010488 -0.024290
  5C   3s        -0.323852  0.812882  0.002950 -0.237673 -0.525303 -1.334504
  5C   1pz        0.013330 -0.042996 -0.186739  0.016450  0.002354  0.024399
  5C   1px        0.061335 -0.159930  0.048558  0.061282  0.040565  0.078488
  5C   1py       -0.015002 -0.008940  0.029380  0.000739 -0.053233  0.024326
  5C   2pz        0.047526 -0.133377 -0.548087  0.296803  0.027552  0.169291
  5C   2px        0.123324 -0.535081  0.142795  1.110224  0.282503  0.562012
  5C   2py        0.102516  0.039001  0.085971  0.029201 -0.297845  0.137646
  6H   1s        -0.000342 -0.000106  0.000120 -0.012268  0.028595  0.004027
  6H   2s         1.318600 -0.235257 -0.004343 -0.987301 -1.258733 -0.150374
  7H   1s        -0.001012 -0.000685  0.000041  0.013857 -0.013112  0.018560
  7H   2s         0.622515  1.043060  0.002955  1.132642  0.816063 -0.988651
  8H   1s         0.000969 -0.001792 -0.000148 -0.014437 -0.006446 -0.018196
  8H   2s        -0.334591  1.047771  0.001652 -1.238873  0.521912  1.177208
  9H   1s         0.000346  0.000076 -0.000125  0.012568  0.028468  0.003954
  9H   2s        -1.318793  0.237048  0.003603  0.974322 -1.267396 -0.157676
 10H   1s         0.001001  0.000696 -0.000010 -0.013825 -0.012990  0.018686
 10H   2s        -0.622535 -1.042392 -0.000950 -1.132676  0.825781 -0.981014
 11H   1s        -0.000947  0.001792  0.000121  0.014256 -0.006551 -0.018272
 11H   2s         0.334628 -1.047950 -0.002947  1.251703  0.509256  1.166897
                     30        31        32        33        34        35   
                   0.71285   0.72032   0.73018   0.73327   1.01509   1.03093
                   0.00000   0.00000   0.00000   0.00000   0.00000   0.00000
                  --------  --------  --------  --------  --------  --------
  0C   1s         0.016516  0.096845 -0.009183  0.059268 -0.000159 -0.126574
  0C   2s        -0.002968 -0.020177 -0.000987  0.003845 -0.000337  0.031567
  0C   3s        -0.319221 -1.863523  0.263990 -1.683759 -0.001150  2.810066
  0C   1pz        0.000651 -0.001266  0.058361  0.009478  0.059830 -0.000142
  0C   1px       -0.014466 -0.094176  0.162485  0.017468  0.165909  0.070454
  0C   1py        0.028298  0.149376  0.099619  0.031144  0.103178 -0.116045
  0C   2pz        0.246710 -0.059105  0.549153  0.092876  0.841727  0.013760
  0C   2px        0.547580 -0.908946  1.527760  0.153315  2.332953  1.173829
  0C   2py        0.653483  1.145513  0.938035  0.337993  1.452946 -1.878513
  1C   1s         0.071383 -0.062266  0.046384  0.040562 -0.000140  0.124721
  1C   2s        -0.009700  0.009003  0.005770  0.003485  0.001087 -0.023049
  1C   3s        -1.398865  1.215118 -1.313209 -1.144909  0.016044 -2.781397
  1C   1pz        0.035001 -0.029355  0.023297 -0.019431  0.030089  0.033468
  1C   1px        0.061325 -0.052023  0.119712 -0.124084  0.170856  0.056961
  1C   1py        0.120076 -0.099512 -0.052160  0.083780 -0.095094  0.118554
  1C   2pz        0.218279 -0.341919  0.222577 -0.175209  0.435704  0.561493
  1C   2px        0.081964 -0.999178  1.114825 -1.183016  2.493761  0.994365
  1C   2py        1.249495 -0.502464 -0.450021  0.861812 -1.400787  1.903534
  2C   1s        -0.086586 -0.032719  0.058412 -0.022617  0.000019 -0.123575
  2C   2s         0.009361  0.003459  0.007887 -0.002103 -0.000667  0.018530
  2C   3s         1.707714  0.643584 -1.650758  0.636258 -0.010148  2.760257
  2C   1pz       -0.044211 -0.015802  0.015055  0.024351 -0.028064 -0.034186
  2C   1px       -0.166152 -0.059975  0.014339 -0.016945  0.009521 -0.131326
  2C   1py       -0.003844 -0.000220  0.071870  0.182744 -0.192989 -0.000230
  2C   2pz       -0.334033 -0.242572  0.154526  0.224724 -0.412423 -0.570968
  2C   2px       -1.407217 -0.453637  0.197309 -0.200975  0.152140 -2.146434
  2C   2py        0.226870 -0.782497  0.650142  1.761754 -2.867736 -0.040608
  3C   1s         0.016701  0.096799  0.010195 -0.059131  0.000404  0.126567
  3C   2s        -0.002995 -0.020173  0.000802 -0.003870 -0.000518 -0.031560
  3C   3s        -0.323717 -1.862373 -0.284943  1.680877 -0.010827 -2.810004
  3C   1pz       -0.000690  0.000613  0.058404  0.009548 -0.059823  0.000803
  3C   1px        0.014404  0.092472  0.163356  0.017712 -0.165524  0.070821
  3C   1py       -0.028360 -0.150429  0.098122  0.031019 -0.103782 -0.115792
  3C   2pz       -0.247108  0.052654  0.549689  0.093429 -0.841640  0.016379
  3C   2px       -0.547881  0.894054  1.537282  0.152573 -2.327680  1.186792
  3C   2py       -0.653847 -1.154933  0.926014  0.334987 -1.461136 -1.870398
  4C   1s         0.071467 -0.061752 -0.047028 -0.040428 -0.000744 -0.124726
  4C   2s        -0.009702  0.009055 -0.005687 -0.003500  0.001196  0.023030
  4C   3s        -1.401564  1.201603  1.326801  1.141977  0.028737  2.782931
  4C   1pz       -0.034901  0.029032  0.023468 -0.019464 -0.029613  0.033778
  4C   1px       -0.060992  0.050863  0.120219 -0.124149 -0.170636  0.057701
  4C   1py       -0.120254  0.100003 -0.051140  0.083579  0.095646  0.118027
  4C   2pz       -0.217342  0.339252  0.225224 -0.175382 -0.431505  0.562808
  4C   2px       -0.078739  0.989586  1.125736 -1.181980 -2.490929  1.007697
  4C   2py       -1.251397  0.506290 -0.444926  0.858791  1.410461  1.897184
  5C   1s        -0.086640 -0.032144 -0.058760  0.022358  0.000608  0.123588
  5C   2s         0.009363  0.003527 -0.007860  0.002125 -0.000765 -0.018527
  5C   3s         1.710084  0.628128  1.658301 -0.630539 -0.022627 -2.762039
  5C   1pz        0.044168  0.015597  0.015232  0.024414  0.027546 -0.034876
  5C   1px        0.166116  0.059874  0.014883 -0.016494 -0.010120 -0.131047
  5C   1py        0.003360 -0.000765  0.071813  0.182709  0.193097 -0.001105
  5C   2pz        0.333102  0.240625  0.156355  0.225501  0.408217 -0.572147
  5C   2px        1.407199  0.452087  0.201758 -0.196692 -0.162056 -2.146631
  5C   2py       -0.231088  0.774720  0.658692  1.761703  2.869542 -0.055462
  6H   1s         0.000783 -0.000889  0.022834 -0.134900 -0.001317 -0.152151
  6H   2s        -0.142965 -0.749299 -0.035612  0.147046  0.001540  0.862347
  7H   1s         0.004155 -0.001874 -0.097312 -0.083288  0.004201  0.156238
  7H   2s        -0.642210  0.505114  0.109973  0.071070 -0.000906 -0.871869
  8H   1s        -0.007046 -0.001928 -0.115210  0.044132 -0.003380 -0.159435
  8H   2s         0.803897  0.273834  0.107648 -0.030557  0.001465  0.877881
  9H   1s         0.000334 -0.000763 -0.022798  0.134908 -0.000626  0.152130
  9H   2s        -0.141947 -0.749604  0.027965 -0.148156 -0.002453 -0.862337
 10H   1s         0.003926 -0.002896  0.097336  0.083262  0.003461 -0.156191
 10H   2s        -0.641746  0.506258 -0.104957 -0.072157  0.003331  0.871969
 11H   1s        -0.006858 -0.003054  0.115212 -0.044143 -0.002703  0.159433
 11H   2s         0.802998  0.275010 -0.105270  0.032922 -0.002706 -0.877845
                     36        37        38        39        40        41   
                   1.09993   1.12361   1.17391   1.21556   1.22866   1.26339
                   0.00000   0.00000   0.00000   0.00000   0.00000   0.00000
                  --------  --------  --------  --------  --------  --------
  0C   1s        -0.000319  0.012536  0.000051 -0.012471  0.069783  0.000015
  0C   2s        -0.002193 -0.031089 -0.000099 -0.001924 -0.013041 -0.000139
  0C   3s        -0.003243 -0.129301 -0.000101 -0.015361  0.069221  0.000134
  0C   1pz       -0.122809  0.001049  0.391578 -0.160360 -0.031696 -0.127954
  0C   1px       -0.340094 -0.127207 -0.102817 -0.433861 -0.163650  0.033188
  0C   1py       -0.212509  0.219613 -0.061555 -0.295609  0.073437  0.020102
  0C   2pz        0.146673  0.000070 -0.212071  0.161435  0.036938  0.067201
  0C   2px        0.406025  0.157739  0.055646  0.450012  0.121029 -0.017173
  0C   2py        0.254068 -0.262718  0.033409  0.274924  0.032848 -0.010439
  1C   1s        -0.001159  0.008322 -0.000022 -0.052322 -0.046574 -0.000075
  1C   2s        -0.006918 -0.030820  0.000049  0.003691  0.018019 -0.000101
  1C   3s        -0.008148 -0.116459  0.000088 -0.058314 -0.042898 -0.000256
  1C   1pz        0.059065  0.058683  0.419999  0.024200 -0.093930  0.413534
  1C   1px        0.338613  0.089292 -0.110721  0.253911 -0.415012 -0.108814
  1C   1py       -0.190603  0.223261 -0.066010 -0.271383  0.097622 -0.065093
  1C   2pz       -0.070540 -0.069780 -0.267773 -0.035482  0.071786 -0.306995
  1C   2px       -0.404301 -0.114394  0.070735 -0.210279  0.365340  0.080986
  1C   2py        0.227026 -0.252173  0.042077  0.127330 -0.154911  0.048353
  2C   1s        -0.000810  0.005965 -0.000050  0.065169 -0.023640 -0.000001
  2C   2s        -0.004513 -0.031103  0.000059 -0.012962  0.011740 -0.000085
  2C   3s        -0.005290 -0.111402  0.000134  0.072043 -0.023063 -0.000038
  2C   1pz        0.053840  0.060374  0.445034  0.016968 -0.090596  0.599662
  2C   1px       -0.020746  0.235017 -0.116897  0.167587 -0.038978 -0.157004
  2C   1py        0.375960 -0.009816 -0.070341 -0.173155 -0.508355 -0.094882
  2C   2pz       -0.064130 -0.069880 -0.313036  0.005553  0.066318 -0.541661
  2C   2px        0.024319 -0.267519  0.082172 -0.032548  0.006349  0.141733
  2C   2py       -0.447635  0.002485  0.049370  0.089458  0.408983  0.085830
  3C   1s         0.000375  0.012540  0.000056 -0.012474  0.069784 -0.000025
  3C   2s         0.002578 -0.031054 -0.000097 -0.002329 -0.013162  0.000125
  3C   3s         0.003250 -0.129612 -0.000132 -0.017557  0.068887 -0.000203
  3C   1pz       -0.122787 -0.001536  0.391529  0.160558  0.031023  0.127791
  3C   1px       -0.340372  0.126401 -0.103011  0.433785  0.163344 -0.034131
  3C   1py       -0.212016 -0.220079 -0.061725  0.295641 -0.073669 -0.020042
  3C   2pz        0.146707  0.000172 -0.212099 -0.161496 -0.036646 -0.066860
  3C   2px        0.406814 -0.156716  0.055802 -0.449185 -0.119998  0.018305
  3C   2py        0.253057  0.262953  0.033353 -0.276244 -0.032453  0.010420
  4C   1s         0.001103  0.008315 -0.000006 -0.052409 -0.046549  0.000074
  4C   2s         0.007206 -0.030890  0.000049  0.003472  0.018218  0.000118
  4C   3s         0.008457 -0.116207  0.000004 -0.056870 -0.042141  0.000331
  4C   1pz        0.059166 -0.058389  0.420385 -0.023859  0.093318 -0.413306
  4C   1px        0.339351 -0.088320 -0.110058 -0.254591  0.414168  0.108302
  4C   1py       -0.189934 -0.223871 -0.066184  0.271501 -0.096965  0.064899
  4C   2pz       -0.070667  0.069550 -0.268108  0.035500 -0.071135  0.306843
  4C   2px       -0.404789  0.113360  0.070062  0.212067 -0.363945 -0.080152
  4C   2py        0.226434  0.253174  0.042222 -0.126515  0.154336 -0.048109
  5C   1s         0.000762  0.005954 -0.000040  0.065243 -0.023567 -0.000007
  5C   2s         0.004808 -0.031220  0.000059 -0.012828  0.012047  0.000102
  5C   3s         0.005588 -0.111548  0.000099  0.070805 -0.022785  0.000087
  5C   1pz        0.053895 -0.059912  0.445347 -0.016584  0.089716 -0.599459
  5C   1px       -0.019912 -0.235117 -0.116978 -0.167577  0.039155  0.157896
  5C   1py        0.376337  0.010868 -0.069876  0.173929  0.507761  0.093799
  5C   2pz       -0.064235  0.069525 -0.313277 -0.006081 -0.065509  0.541561
  5C   2px        0.023700  0.266953  0.082365  0.030952 -0.006482 -0.142701
  5C   2py       -0.448036 -0.003788  0.049217 -0.090859 -0.408139 -0.084677
  6H   1s        -0.004171  0.377424  0.000158 -0.051799  0.306090 -0.000089
  6H   2s         0.001407 -0.100124 -0.000021  0.027844 -0.137315 -0.000027
  7H   1s        -0.011396  0.357979 -0.000142 -0.232138 -0.218312 -0.000521
  7H   2s         0.003484 -0.104150 -0.000004  0.114504  0.093069  0.000223
  8H   1s        -0.007577  0.346689 -0.000283  0.301849 -0.116017 -0.000131
  8H   2s         0.002044 -0.104140  0.000046 -0.144186  0.048505  0.000030
  9H   1s         0.003638  0.377487  0.000196 -0.052387  0.305921  0.000014
  9H   2s        -0.001748 -0.100284 -0.000021  0.027630 -0.137319 -0.000058
 10H   1s         0.010340  0.357908 -0.000027 -0.232507 -0.217884  0.000475
 10H   2s        -0.002993 -0.103967 -0.000013  0.115077  0.092996 -0.000196
 11H   1s         0.006621  0.346542 -0.000210  0.302226 -0.115349  0.000069
 11H   2s        -0.001664 -0.104498  0.000054 -0.145059  0.048324 -0.000017
                     42        43        44        45        46        47   
                   1.27081   1.30189   1.30263   1.30277   1.32349   1.36404
                   0.00000   0.00000   0.00000   0.00000   0.00000   0.00000
                  --------  --------  --------  --------  --------  --------
  0C   1s         0.000001  0.003960  0.042668 -0.002179  0.000032 -0.000986
  0C   2s         0.000266  0.014652  0.180767 -0.009282 -0.000553 -0.342486
  0C   3s        -0.000297 -0.002184 -0.065281  0.003061  0.000202  0.180610
  0C   1pz        0.562008 -0.155397  0.017363  0.135016  0.630416 -0.001282
  0C   1px       -0.147548 -0.427200  0.054663 -0.038730 -0.165638 -0.167548
  0C   1py       -0.089132 -0.271901 -0.018521 -0.020552 -0.098932  0.277200
  0C   2pz       -0.407374  0.141515 -0.013395 -0.168924 -0.795215  0.000158
  0C   2px        0.106827  0.389705  0.002802  0.044032  0.208821  0.119355
  0C   2py        0.065023  0.246124 -0.040240  0.028616  0.125212 -0.206902
  1C   1s         0.000069 -0.033475  0.023043 -0.001160  0.000019  0.000196
  1C   2s        -0.000044 -0.146338  0.106525 -0.005555 -0.000432 -0.342560
  1C   3s         0.000515 -0.004701 -0.019526  0.001431  0.000220  0.136829
  1C   1pz        0.450351 -0.042596 -0.045098  0.477998 -0.388123  0.071652
  1C   1px       -0.118767 -0.268643 -0.387548 -0.105290  0.102310  0.117600
  1C   1py       -0.070124  0.182187  0.190879 -0.084120  0.061393  0.256745
  1C   2pz       -0.423946  0.056502  0.007278 -0.632367  0.519389 -0.036414
  1C   2px        0.111691  0.282214  0.278984  0.151074 -0.136766 -0.049068
  1C   2py        0.065628 -0.115173 -0.193186  0.108721 -0.082070 -0.145833
  2C   1s        -0.000096 -0.035565 -0.016573  0.000842  0.000037  0.000442
  2C   2s        -0.000107 -0.162897 -0.078345  0.003827 -0.000453 -0.341520
  2C   3s        -0.000573 -0.032392  0.001747 -0.000467  0.000594  0.114928
  2C   1pz       -0.190054 -0.028536  0.043590 -0.562801 -0.177040  0.069499
  2C   1px        0.049430  0.037181 -0.008662  0.147451  0.046984  0.265407
  2C   1py        0.030356 -0.238794  0.489142  0.063600  0.027868 -0.003493
  2C   2pz        0.209404  0.047744 -0.004538  0.776773  0.246490 -0.028229
  2C   2px       -0.054060  0.048903  0.044215 -0.205486 -0.065442 -0.113137
  2C   2py       -0.033410  0.217628 -0.378380 -0.102588 -0.038948  0.013570
  3C   1s        -0.000004 -0.004123 -0.042661  0.002178  0.000032 -0.000985
  3C   2s        -0.000262 -0.014428 -0.180753  0.009045 -0.000529 -0.342539
  3C   3s         0.000320  0.002592  0.065141 -0.003026 -0.000105  0.180877
  3C   1pz       -0.562270 -0.154547  0.020141  0.134496  0.630387 -0.000458
  3C   1px        0.147912 -0.427722  0.053214 -0.038161 -0.165426  0.167563
  3C   1py        0.087806 -0.272026 -0.019415 -0.020468 -0.099203 -0.277331
  3C   2pz        0.407717  0.140470 -0.016138 -0.168172 -0.795274  0.002475
  3C   2px       -0.107447  0.389549  0.004123  0.044482  0.208939 -0.119667
  3C   2py       -0.063317  0.246794 -0.039417  0.029262  0.124538  0.207136
  4C   1s        -0.000080  0.033583 -0.022965  0.001183 -0.000001  0.000195
  4C   2s         0.000070  0.146520 -0.106541  0.005336 -0.000511 -0.342522
  4C   3s        -0.000438  0.004343  0.020011 -0.000945  0.000447  0.136649
  4C   1pz       -0.450677 -0.041996 -0.045599  0.477632 -0.388570 -0.070908
  4C   1px        0.117866 -0.269582 -0.387045 -0.105139  0.101835 -0.117753
  4C   1py        0.071500  0.182304  0.190474 -0.084636  0.060551 -0.256827
  4C   2pz        0.424304  0.056192  0.008483 -0.631695  0.519883  0.035305
  4C   2px       -0.111051  0.282447  0.278533  0.152185 -0.136299  0.049361
  4C   2py       -0.067569 -0.115050 -0.192546  0.109144 -0.080963  0.145876
  5C   1s         0.000097  0.035633  0.016488 -0.000816  0.000004  0.000452
  5C   2s         0.000088  0.163025  0.078360 -0.004099 -0.000518 -0.341438
  5C   3s         0.000501  0.032050 -0.001996  0.000140  0.000132  0.115071
  5C   1pz        0.190508 -0.027326  0.043677 -0.562519 -0.177364 -0.068891
  5C   1px       -0.050405  0.037012 -0.008382  0.147654  0.046172 -0.265796
  5C   1py       -0.029521 -0.239932  0.488587  0.063012  0.028051  0.003502
  5C   2pz       -0.209903  0.046385 -0.005360  0.776197  0.246873  0.027235
  5C   2px        0.055762  0.048394  0.043660 -0.206222 -0.064560  0.114345
  5C   2py        0.032593  0.218710 -0.377663 -0.103125 -0.038894 -0.013423
  6H   1s         0.000303  0.040296  0.465412 -0.023785 -0.000354 -0.333775
  6H   2s        -0.000240 -0.017919 -0.184059  0.009450  0.000193  0.279896
  7H   1s         0.000334 -0.369886  0.259604 -0.013133 -0.000218 -0.316832
  7H   2s        -0.000056  0.139302 -0.091243  0.004847  0.000315  0.223298
  8H   1s        -0.000659 -0.401504 -0.187796  0.009362 -0.000071 -0.309012
  8H   2s         0.000152  0.140927  0.062449 -0.003212  0.000291  0.195862
  9H   1s        -0.000345 -0.040738 -0.465393  0.023636 -0.000357 -0.333881
  9H   2s         0.000241  0.018421  0.184084 -0.009207  0.000097  0.280088
 10H   1s        -0.000399  0.370627 -0.259064  0.013294 -0.000398 -0.316598
 10H   2s         0.000129 -0.139517  0.091256 -0.004547  0.000476  0.223189
 11H   1s         0.000631  0.402197  0.187357 -0.009483 -0.000382 -0.308826
 11H   2s        -0.000234 -0.141835 -0.062675  0.003148  0.000326  0.196389
                     48        49        50        51        52        53   
                   1.38200   1.50122   1.51976   1.53447   1.62104   1.63047
                   0.00000   0.00000   0.00000   0.00000   0.00000   0.00000
                  --------  --------  --------  --------  --------  --------
  0C   1s        -0.000088 -0.012205  0.025955  0.004744  0.024279 -0.004648
  0C   2s        -0.000097  0.014517 -0.100194 -0.028008 -0.192564  0.034956
  0C   3s        -0.000595  1.345009 -0.328184 -0.048300 -0.053014 -0.013127
  0C   1pz       -0.490096 -0.004777  0.006631 -0.016251 -0.016404 -0.094605
  0C   1px        0.128770 -0.296319  0.334363  0.010559  0.193941 -0.302555
  0C   1py        0.077459  0.460879 -0.514858 -0.121053 -0.427741 -0.095564
  0C   2pz        0.914739  0.015132 -0.020828  0.055333  0.051841  0.297349
  0C   2px       -0.240457  1.087752 -0.829363  0.015078 -0.161011  0.850441
  0C   2py       -0.144585 -1.718577  1.251238  0.326542  0.598699  0.468579
  1C   1s        -0.000043  0.010735 -0.016385  0.019967  0.018375  0.019325
  1C   2s         0.000024  0.010807  0.020153 -0.067893 -0.129094 -0.127524
  1C   3s        -0.000483 -1.375320  0.257001 -0.267881 -0.229646 -0.145430
  1C   1pz        0.428629 -0.128430  0.110227 -0.115954 -0.056587 -0.121292
  1C   1px       -0.111763 -0.240832  0.219481 -0.186203  0.047125 -0.344820
  1C   1py       -0.067904 -0.415300  0.333750 -0.426723 -0.438197 -0.195307
  1C   2pz       -0.875449  0.494618 -0.268291  0.280202  0.059015  0.216305
  1C   2px        0.228770  0.893078 -0.555393  0.442150 -0.322779  0.791672
  1C   2py        0.138538  1.652102 -0.775935  1.043977  0.913788  0.052376
  2C   1s         0.000066 -0.009957 -0.008337 -0.023969 -0.009348  0.026051
  2C   2s         0.000082 -0.021922 -0.002497  0.047781  0.061868 -0.161339
  2C   3s         0.000991  1.384480  0.147132  0.361865  0.167206 -0.335703
  2C   1pz       -0.390661  0.122934  0.062734  0.150553  0.005448 -0.139777
  2C   1px        0.102535  0.455196  0.208443  0.576358  0.204388 -0.465731
  2C   1py        0.060714  0.024355  0.050962 -0.003517 -0.305922 -0.111703
  2C   2pz        0.849912 -0.490189 -0.152199 -0.361730  0.027144  0.244279
  2C   2px       -0.223388 -1.833425 -0.488748 -1.384223 -0.430289  0.730694
  2C   2py       -0.132788 -0.056492 -0.150296  0.009231  0.889464  0.332658
  3C   1s         0.000098  0.012160  0.025979  0.004837 -0.024269  0.004592
  3C   2s         0.000083 -0.014492 -0.100296 -0.028309  0.192439 -0.034522
  3C   3s         0.000588 -1.344097 -0.330588 -0.051548  0.052937  0.012592
  3C   1pz        0.490224 -0.005891 -0.007145  0.016046 -0.016579 -0.093850
  3C   1px       -0.128652 -0.295461 -0.335030 -0.011954  0.193048 -0.300607
  3C   1py       -0.076667  0.459958  0.515569  0.122321 -0.428043 -0.094756
  3C   2pz       -0.915030  0.015333  0.021373 -0.055005  0.053677  0.293820
  3C   2px        0.240173  1.085335  0.831472 -0.010886 -0.156069  0.840718
  3C   2py        0.143078 -1.716743 -1.254149 -0.330887  0.601203  0.463639
  4C   1s         0.000017 -0.010720 -0.016391  0.019923 -0.018368 -0.019342
  4C   2s         0.000027 -0.010845  0.020319 -0.067747  0.128927  0.128100
  4C   3s         0.000460  1.376090  0.259448 -0.264202  0.229544  0.145425
  4C   1pz       -0.428446 -0.128542 -0.110237  0.115631 -0.056501 -0.121161
  4C   1px        0.113324 -0.240539 -0.220152  0.185118  0.046353 -0.343347
  4C   1py        0.066886 -0.415894 -0.334415  0.426135 -0.437154 -0.197007
  4C   2pz        0.875346  0.494082  0.268507 -0.278976  0.059410  0.214797
  4C   2px       -0.230945  0.891773  0.557458 -0.438667 -0.318036  0.782499
  4C   2py       -0.136568  1.654051  0.778909 -1.040748  0.909663  0.059625
  5C   1s        -0.000052  0.009995 -0.008305 -0.023959  0.009344 -0.026004
  5C   2s        -0.000101  0.021616 -0.002227  0.048231 -0.061885  0.161765
  5C   3s        -0.000970 -1.386119  0.144848  0.358835 -0.166766  0.334744
  5C   1pz        0.390478  0.124047 -0.062565 -0.150955  0.005533 -0.140114
  5C   1px       -0.102616  0.456594 -0.207837 -0.576129  0.203566 -0.464678
  5C   1py       -0.062064  0.024073 -0.050988  0.003683 -0.304865 -0.114086
  5C   2pz       -0.849914 -0.491362  0.151137  0.361505  0.026539  0.245333
  5C   2px        0.222903 -1.837052  0.485943  1.380974 -0.428232  0.727719
  5C   2py        0.134575 -0.055197  0.150192 -0.009599  0.883584  0.344368
  6H   1s        -0.000540 -0.178717  0.418538  0.072470  0.453515 -0.095522
  6H   2s         0.000418  1.001389 -1.134870 -0.205475 -0.833499  0.139239
  7H   1s        -0.000160  0.153653 -0.288587  0.329336  0.318273  0.370036
  7H   2s         0.000039 -0.907109  0.734215 -0.878074 -0.677353 -0.630640
  8H   1s         0.000384 -0.140166 -0.154492 -0.414906 -0.154699  0.476219
  8H   2s        -0.000088  0.862483  0.381439  1.071326  0.358263 -0.888197
  9H   1s         0.000553  0.177793  0.418853  0.073298 -0.453348  0.095156
  9H   2s        -0.000491 -0.999228 -1.136680 -0.208994  0.833060 -0.138310
 10H   1s         0.000176 -0.153858 -0.288711  0.328957 -0.318026 -0.370386
 10H   2s         0.000076  0.907654  0.735785 -0.875904  0.676411  0.632143
 11H   1s        -0.000399  0.141072 -0.154277 -0.415288  0.154322 -0.475612
 11H   2s         0.000035 -0.864964  0.380148  1.070722 -0.357016  0.886645
                     54        55        56        57        58        59   
                   1.63338   1.76839   1.77308   1.81369   1.92144   1.93478
                   0.00000   0.00000   0.00000   0.00000   0.00000   0.00000
                  --------  --------  --------  --------  --------  --------
  0C   1s        -0.000155  0.002130  0.000082  0.017673  0.019553  0.003183
  0C   2s        -0.001628  0.315913  0.066127 -0.622339 -0.265151 -0.442095
  0C   3s        -0.001136 -2.421312 -0.455014  0.810420 -1.382868  1.098325
  0C   1pz       -0.153380 -0.021065  0.094700  0.001313  0.001117 -0.010749
  0C   1px       -0.422249 -0.287964  0.217313  0.117561  0.047007  0.116141
  0C   1py       -0.269507  0.344539  0.238315 -0.186967 -0.069432 -0.261195
  0C   2pz        0.808734  0.127081 -0.623731 -0.002817 -0.018621  0.013637
  0C   2px        2.231839  0.944422 -1.602586 -0.162802 -1.258336 -0.948892
  0C   2py        1.412122 -0.758710 -1.284078  0.251463  1.983418  1.667129
  1C   1s         0.000535  0.002201 -0.000957  0.018962 -0.019300 -0.002455
  1C   2s         0.005489  0.197166 -0.253876 -0.607804  0.279103  0.283540
  1C   3s        -0.003076 -1.662161  1.864193  0.751596  1.275302 -0.688733
  1C   1pz       -0.076678  0.116063 -0.056835 -0.060307  0.026500  0.005719
  1C   1px       -0.451487  0.362117  0.031883 -0.107783  0.053778 -0.146513
  1C   1py        0.268087  0.133705 -0.414579 -0.203761  0.079762  0.280717
  1C   2pz        0.405666 -0.420729  0.007402  0.087301 -0.611671 -0.216228
  1C   2px        2.363138 -1.744569 -0.840219  0.163245 -1.117158 -0.054128
  1C   2py       -1.374660  0.234248  1.450723  0.283185 -2.022156 -1.281999
  2C   1s        -0.000458 -0.001360 -0.001746  0.019578  0.019245 -0.001670
  2C   2s        -0.003590 -0.093569 -0.307189 -0.599555 -0.287879  0.181801
  2C   3s         0.004180  0.844815  2.360836  0.718718 -1.229381 -0.435779
  2C   1pz        0.074147 -0.086575 -0.100239 -0.063838 -0.027701 -0.014872
  2C   1px       -0.035325 -0.131080 -0.444068 -0.240124 -0.100342  0.126292
  2C   1py        0.528349 -0.332082  0.102530 -0.005807 -0.010372 -0.305502
  2C   2pz       -0.386684  0.376670  0.165463  0.093847  0.622987 -0.097898
  2C   2px        0.171386  0.187653  1.048181  0.349015  2.318893 -0.755927
  2C   2py       -2.735034  2.083957 -0.689904  0.015960  0.090083  0.641734
  3C   1s        -0.000179 -0.002134 -0.000082  0.017663 -0.019546  0.003201
  3C   2s        -0.000791 -0.315778 -0.065779 -0.622349  0.264777 -0.442399
  3C   3s         0.000199  2.420726  0.455758  0.811781  1.383673  1.097076
  3C   1pz        0.153730 -0.021710  0.094521 -0.001684  0.001758  0.010380
  3C   1px        0.424112 -0.287626  0.217544 -0.117735  0.046773 -0.116162
  3C   1py        0.268688  0.344645  0.238314  0.186972 -0.069203  0.261381
  3C   2pz       -0.809815  0.130235 -0.622762  0.003624 -0.018801 -0.011965
  3C   2px       -2.236219  0.943587 -1.603756  0.162337 -1.258115  0.950936
  3C   2py       -1.411841 -0.758766 -1.284113 -0.250706  1.980772 -1.669544
  4C   1s         0.000552 -0.002210  0.000938  0.018966  0.019303 -0.002488
  4C   2s         0.005268 -0.196968  0.254184 -0.608076 -0.278526  0.283743
  4C   3s        -0.003807  1.662375 -1.865156  0.750739 -1.277652 -0.686198
  4C   1pz        0.076722  0.116202 -0.056855  0.060305  0.026606 -0.005542
  4C   1px        0.453380  0.362009  0.031943  0.107674  0.053707  0.146552
  4C   1py       -0.267854  0.133607 -0.414705  0.203570  0.079373 -0.280910
  4C   2pz       -0.404579 -0.421861  0.007479 -0.087634 -0.611058  0.216093
  4C   2px       -2.368199 -1.744374 -0.840708 -0.163655 -1.117418  0.055631
  4C   2py        1.375714  0.234638  1.451701 -0.283678 -2.020569  1.284990
  5C   1s        -0.000297  0.001367  0.001726  0.019545 -0.019284 -0.001656
  5C   2s        -0.004504  0.093519  0.307197 -0.599634  0.288165  0.181189
  5C   3s         0.003322 -0.844704 -2.361005  0.719247  1.230760 -0.436410
  5C   1pz       -0.073149 -0.086782 -0.100735  0.063882 -0.028146  0.014941
  5C   1px        0.037415 -0.130968 -0.443946  0.239339 -0.100584 -0.126342
  5C   1py       -0.528685 -0.332217  0.102635  0.005767 -0.009827  0.305527
  5C   2pz        0.383746  0.377664  0.167590 -0.093747  0.623621  0.096899
  5C   2px       -0.174580  0.186894  1.046928 -0.346472  2.319844  0.753361
  5C   2py        2.736258  2.084435 -0.689856 -0.015705  0.089850 -0.641191
  6H   1s        -0.001937  0.438257  0.088160  0.185975 -0.525450 -0.608860
  6H   2s        -0.008687  0.640067  0.132116 -0.558667 -0.670338 -0.796562
  7H   1s         0.007237  0.259807 -0.322303  0.205485  0.551731  0.375440
  7H   2s         0.023771  0.406529 -0.513694 -0.583928  0.687187  0.496521
  8H   1s        -0.006288 -0.120133 -0.379943  0.216446 -0.562649  0.236607
  8H   2s        -0.013439 -0.196889 -0.630651 -0.599430 -0.693762  0.314435
[...]
  2C   2s        -0.004026 -0.089936  0.290311  0.571621  0.253498 -0.196580
  2C   3s         0.000438  0.894762 -2.316997 -0.633098  1.252005  0.430875
  2C   1pz        0.073578 -0.090226  0.103712  0.064171  0.034319  0.015901
  2C   1px       -0.041966 -0.142424  0.459796  0.234733  0.125565 -0.126945
  2C   1py        0.535634 -0.336472 -0.106673  0.016767  0.010432  0.313211
  2C   2pz       -0.380214  0.373149 -0.160989 -0.083904 -0.644791  0.080948
  2C   2px        0.189376  0.179352 -1.051478 -0.292615 -2.392102  0.703048
  2C   2py       -2.723755  2.075682  0.723970 -0.046724 -0.106506 -0.661430
  3C   1s        -0.000304 -0.001928 -0.000224 -0.016632  0.020385 -0.002355
  3C   2s        -0.001569 -0.322167  0.063768  0.657609 -0.297839  0.407306
  3C   3s        -0.000523  2.421644 -0.396420 -0.916181 -1.421443 -1.054083
  3C   1pz        0.151461 -0.019684 -0.090093  0.003076 -0.001695 -0.013821
  3C   1px        0.416093 -0.278838 -0.209763  0.124707 -0.033085  0.100061
  3C   1py        0.267663  0.342848 -0.223103 -0.189822  0.046718 -0.256320
  3C   2pz       -0.804173  0.117764  0.613055 -0.008218  0.022110  0.018517
  3C   2px       -2.214634  0.921891  1.577612 -0.210324  1.245337 -0.914947
  3C   2py       -1.412094 -0.801914  1.265800  0.301921 -1.938242  1.651099
  4C   1s         0.000889 -0.002597 -0.000598 -0.019112 -0.019447  0.003476
  4C   2s         0.006473 -0.179624 -0.256584  0.598797  0.264900 -0.332113
  4C   3s         0.000650  1.624688  1.877152 -0.723977  1.312861  0.766786
  4C   1pz        0.074608  0.115444  0.063231 -0.062128 -0.028244  0.011681
  4C   1px        0.450814  0.364634 -0.012595 -0.120263 -0.056584 -0.130249
  4C   1py       -0.276955  0.124330  0.422898 -0.194070 -0.085025  0.292750
  4C   2pz       -0.394906 -0.413494 -0.030292  0.090687  0.623420 -0.237643
  4C   2px       -2.343224 -1.747928  0.763924  0.196811  1.155706 -0.107654
  4C   2py        1.395476  0.293901 -1.468474  0.247494  2.035308 -1.335097
  5C   1s        -0.000502  0.001701 -0.001542 -0.020712  0.019122  0.002528
  5C   2s        -0.004826  0.089912 -0.290456  0.571673 -0.253964 -0.196044
  5C   3s        -0.000830 -0.894730  2.317338 -0.633273 -1.253067  0.431860
  5C   1pz       -0.072547 -0.090471  0.104237 -0.064143  0.034814 -0.016017
  5C   1px        0.043890 -0.142305  0.459721 -0.233823  0.125902  0.126893
  5C   1py       -0.535827 -0.336613 -0.106776 -0.016746  0.009855 -0.313229
  5C   2pz        0.377230  0.374217 -0.163103  0.083672 -0.645567 -0.079725
  5C   2px       -0.192261  0.178579 -1.050310  0.289754 -2.393567 -0.699848
  5C   2py        2.724494  2.076168  0.723939  0.046499 -0.106215  0.660915
  6H   1s        -0.003812  0.455521 -0.085523 -0.146681  0.510536  0.610389
  6H   2s        -0.013817  0.640433 -0.126474  0.586488  0.652537  0.762667
  7H   1s         0.010036  0.240377  0.329594 -0.209047 -0.552548 -0.384852
  7H   2s         0.039026  0.384471  0.542584  0.572552 -0.696281 -0.548143
  8H   1s        -0.007262 -0.113209  0.357119 -0.242898  0.572122 -0.203517
  8H   2s        -0.023533 -0.202459  0.644470  0.571318  0.721162 -0.312541
  9H   1s        -0.004762 -0.455435  0.085454 -0.146813 -0.509664  0.611224
  9H   2s        -0.011495 -0.640155  0.126033  0.586416 -0.651603  0.763688
 10H   1s         0.011106 -0.240536 -0.329666 -0.208855  0.552091 -0.385613
 10H   2s         0.037324 -0.384295 -0.543048  0.572515  0.695405 -0.549054
 11H   1s        -0.005054  0.113265 -0.357012 -0.242897 -0.572335 -0.202734
 11H   2s        -0.027481  0.202201 -0.643941  0.569719 -0.721423 -0.311228
                     60        61        62        63        64        65   
                   1.95121   2.03683   2.05560   2.39254   2.40888   2.98298
                   0.00000   0.00000   0.00000   0.00000   0.00000   0.00000
                  --------  --------  --------  --------  --------  --------
  0C   1s        -0.000055  0.007948 -0.000453  0.028310  0.005849  0.086288
  0C   2s         0.051412 -0.997211  0.176312  1.104338  0.223526  1.006517
  0C   3s        -0.149193  1.356270 -0.300277 -3.139078 -0.641467 -6.742535
  0C   1pz       -0.092640  0.003128  0.026765 -0.011702  0.062793  0.000237
  0C   1px       -0.279393 -0.132378  0.098595  0.089284  0.198810  0.044374
  0C   1py       -0.122283  0.241279  0.005443 -0.223677  0.066979 -0.071182
  0C   2pz        0.186782 -0.020433 -0.145416 -0.032448  0.101997 -0.021642
  0C   2px        0.686793  0.325129 -0.498502 -1.161792  0.065054 -2.272846
  0C   2py        0.041667 -0.674960 -0.091371  1.736639  0.539728  3.664569
  1C   1s        -0.002156  0.009781  0.007389 -0.018261  0.020738 -0.086086
  1C   2s         0.314082 -0.648522 -0.783225 -0.770129  0.852232 -1.024384
  1C   3s        -0.788138  0.622648  1.029910  2.149474 -2.406927  6.767011
  1C   1pz        0.088789  0.031997  0.061358  0.014464 -0.066388  0.021482
  1C   1px        0.286221  0.010364  0.144332 -0.075403 -0.204023  0.037778
  1C   1py        0.087681  0.185430  0.148982  0.217266 -0.081674  0.074221
  1C   2pz       -0.451693  0.004507 -0.181715 -0.393545  0.356776 -1.082523
  1C   2px       -1.077206  0.238949 -0.511435 -0.844386  0.483499 -1.884484
  1C   2py       -1.077518 -0.368757 -0.300239 -1.087848  1.460575 -3.728200
  2C   1s         0.004161 -0.006604  0.012630 -0.008424 -0.025523  0.085929
  2C   2s        -0.431308  0.346669 -0.955624 -0.372037 -1.097770  1.034134
  2C   3s         1.016537 -0.263016  1.068251  1.026423  3.069456 -6.780432
  2C   1pz       -0.091446 -0.009550  0.068286 -0.011351  0.066750 -0.022080
  2C   1px       -0.274380 -0.091414  0.238219  0.082972  0.211127 -0.084117
  2C   1py       -0.124686  0.092462  0.036248 -0.211128  0.072123 -0.001243
  2C   2pz        0.519400 -0.057827 -0.139286 -0.218156 -0.490908  1.104882
  2C   2px        1.801016  0.057335 -0.424941 -0.629427 -1.917839  4.172821
  2C   2py        0.301248 -0.464345 -0.175372 -0.332509  0.081636  0.052324
  3C   1s        -0.000063 -0.007940  0.000497  0.028298  0.005897 -0.086284
  3C   2s         0.051439  0.997277 -0.176306  1.104383  0.223298 -1.006480
  3C   3s        -0.149796 -1.356462  0.300156 -3.139099 -0.640762  6.742266
  3C   1pz        0.092600  0.003241  0.026761  0.011741 -0.062762  0.000671
  3C   1px        0.279391 -0.132440  0.098545 -0.089385 -0.198729  0.044269
  3C   1py        0.122165  0.241208  0.005457  0.223670 -0.067158 -0.071256
  3C   2pz       -0.186693 -0.020954 -0.145334  0.031946 -0.102167 -0.019908
  3C   2px       -0.686938  0.325749 -0.497995  1.163077 -0.064970 -2.274833
  3C   2py       -0.041637 -0.674482 -0.092014 -1.735999 -0.538875  3.663391
  4C   1s        -0.002165 -0.009757 -0.007393 -0.018252  0.020746  0.086093
  4C   2s         0.314113  0.648840  0.782580 -0.770450  0.851895  1.024576
  4C   3s        -0.788081 -0.623488 -1.028857  2.151167 -2.406331 -6.769751
  4C   1pz       -0.088956  0.031832  0.061418 -0.014303  0.066432  0.021602
  4C   1px       -0.286043  0.010294  0.144500  0.075269  0.203889  0.037739
  4C   1py       -0.087594  0.185558  0.148922 -0.217330  0.081648  0.074210
  4C   2pz        0.452548  0.004843 -0.181505  0.392687 -0.356780 -1.081477
  4C   2px        1.077065  0.239210 -0.511604  0.845288 -0.483458 -1.886178
  4C   2py        1.077186 -0.369956 -0.299870  1.087981 -1.460515 -3.728713
  5C   1s         0.004190  0.006579 -0.012615 -0.008414 -0.025540 -0.085950
  5C   2s        -0.431069 -0.347171  0.955380 -0.372455 -1.097509 -1.034378
  5C   3s         1.015616  0.264148 -1.068245  1.028117  3.070044  6.783876
  5C   1pz        0.091827 -0.009374  0.068337  0.011452 -0.066822 -0.022424
  5C   1px        0.274538 -0.091481  0.238263 -0.083159 -0.211076 -0.084086
  5C   1py        0.124573  0.092561  0.036345  0.210998 -0.072091 -0.001245
  5C   2pz       -0.520930 -0.058128 -0.139145  0.217661  0.490928  1.104459
  5C   2px       -1.800827  0.058206 -0.424633  0.629970  1.917651  4.173610
  5C   2py       -0.301424 -0.465013 -0.175354  0.333308 -0.081095  0.053828
  6H   1s         0.108122  0.129543 -0.031229 -0.210780 -0.041016 -0.281825
  6H   2s         0.123069  0.048399 -0.020894 -0.375121 -0.077128 -0.832421
  7H   1s         0.478711  0.040964  0.094305  0.145976 -0.154219  0.282698
  7H   2s         0.614434 -0.037170  0.018301  0.240273 -0.271322  0.827778
  8H   1s        -0.574866 -0.008948  0.084969  0.070928  0.198794 -0.283070
  8H   2s        -0.790391  0.040302 -0.027473  0.110935  0.334713 -0.825594
  9H   1s         0.108214 -0.129498  0.031058 -0.210811 -0.040915  0.281850
  9H   2s         0.123227 -0.048350  0.020605 -0.375168 -0.076913  0.832476
 10H   1s         0.478656 -0.041118 -0.094205  0.145910 -0.154230 -0.282679
 10H   2s         0.614312  0.036991 -0.018512  0.240268 -0.271372 -0.827812
 11H   1s        -0.574946  0.009049 -0.084624  0.070873  0.198627  0.282990
 11H   2s        -0.789882 -0.040210  0.027312  0.110949  0.334568  0.825185



                    ********************************
                    * MULLIKEN POPULATION ANALYSIS *
                    ********************************

--------------------------------------------
MULLIKEN ATOMIC CHARGES AND SPIN POPULATIONS
--------------------------------------------
   0 C :   -0.214997   -0.325915
   1 C :   -0.304914    0.287682
   2 C :   -0.335436    0.607619
   3 C :   -0.215004   -0.325694
   4 C :   -0.304849    0.287305
   5 C :   -0.335362    0.607440
   6 H :    0.133083    0.015608
   7 H :    0.116214   -0.028412
   8 H :    0.105990   -0.056431
   9 H :    0.133074    0.015593
  10 H :    0.116250   -0.028379
  11 H :    0.105952   -0.056417
Sum of atomic charges         :   -1.0000000
Sum of atomic spin populations:    1.0000000

-----------------------------------------------------
MULLIKEN REDUCED ORBITAL CHARGES AND SPIN POPULATIONS
-----------------------------------------------------
CHARGE
  0 C s       :     3.265385  s :     3.265385
      pz      :     0.996721  p :     2.949612
      px      :     0.955881
      py      :     0.997010
  1 C s       :     3.237202  s :     3.237202
      pz      :     1.181378  p :     3.067712
      px      :     0.911218
      py      :     0.975116
  2 C s       :     3.221611  s :     3.221611
      pz      :     1.263164  p :     3.113825
      px      :     0.991717
      py      :     0.858943
  3 C s       :     3.265376  s :     3.265376
      pz      :     0.996766  p :     2.949628
      px      :     0.955872
      py      :     0.996989
  4 C s       :     3.237200  s :     3.237200
      pz      :     1.181315  p :     3.067649
      px      :     0.911145
      py      :     0.975189
  5 C s       :     3.221607  s :     3.221607
      pz      :     1.262979  p :     3.113755
      px      :     0.991898
      py      :     0.858878
  6 H s       :     0.866917  s :     0.866917
  7 H s       :     0.883786  s :     0.883786
  8 H s       :     0.894010  s :     0.894010
  9 H s       :     0.866926  s :     0.866926
 10 H s       :     0.883750  s :     0.883750
 11 H s       :     0.894048  s :     0.894048

SPIN
  0 C s       :    -0.069070  s :    -0.069070
      pz      :    -0.165899  p :    -0.256845
      px      :    -0.046726
      py      :    -0.044220
  1 C s       :     0.044997  s :     0.044997
      pz      :     0.218910  p :     0.242685
      px      :     0.030411
      py      :    -0.006635
  2 C s       :     0.111413  s :     0.111413
      pz      :     0.405589  p :     0.496206
      px      :     0.056458
      py      :     0.034160
  3 C s       :    -0.069027  s :    -0.069027
      pz      :    -0.165720  p :    -0.256667
      px      :    -0.046723
      py      :    -0.044224
  4 C s       :     0.044933  s :     0.044933
      pz      :     0.218745  p :     0.242373
      px      :     0.030259
      py      :    -0.006631
  5 C s       :     0.111400  s :     0.111400
      pz      :     0.405370  p :     0.496040
      px      :     0.056579
      py      :     0.034092
  6 H s       :     0.015608  s :     0.015608
  7 H s       :    -0.028412  s :    -0.028412
  8 H s       :    -0.056431  s :    -0.056431
  9 H s       :     0.015593  s :     0.015593
 10 H s       :    -0.028379  s :    -0.028379
 11 H s       :    -0.056417  s :    -0.056417


                     *******************************
                     * LOEWDIN POPULATION ANALYSIS *
                     *******************************

-------------------------------------------
LOEWDIN ATOMIC CHARGES AND SPIN POPULATIONS
-------------------------------------------
   0 C :   -0.092964   -0.190901
   1 C :   -0.233452    0.249178
   2 C :   -0.300009    0.478641
   3 C :   -0.092968   -0.190745
   4 C :   -0.233338    0.248863
   5 C :   -0.299887    0.478436
   6 H :    0.047682    0.008254
   7 H :    0.041367   -0.015100
   8 H :    0.037265   -0.029892
   9 H :    0.047676    0.008245
  10 H :    0.041380   -0.015083
  11 H :    0.037247   -0.029896

----------------------------------------------------
LOEWDIN REDUCED ORBITAL CHARGES AND SPIN POPULATIONS
----------------------------------------------------
CHARGE
  0 C s       :     2.925297  s :     2.925297
      pz      :     1.013466  p :     3.167667
      px      :     1.082263
      py      :     1.071939
  1 C s       :     2.911454  s :     2.911454
      pz      :     1.186573  p :     3.321997
      px      :     1.071470
      py      :     1.063955
  2 C s       :     2.903747  s :     2.903747
      pz      :     1.273745  p :     3.396262
      px      :     1.058806
      py      :     1.063711
  3 C s       :     2.925296  s :     2.925296
      pz      :     1.013488  p :     3.167672
      px      :     1.082293
      py      :     1.071891
  4 C s       :     2.911411  s :     2.911411
      pz      :     1.186490  p :     3.321927
      px      :     1.071471
      py      :     1.063965
  5 C s       :     2.903733  s :     2.903733
      pz      :     1.273595  p :     3.396154
      px      :     1.058849
      py      :     1.063710
  6 H s       :     0.952318  s :     0.952318
  7 H s       :     0.958633  s :     0.958633
  8 H s       :     0.962735  s :     0.962735
  9 H s       :     0.952324  s :     0.952324
 10 H s       :     0.958620  s :     0.958620
 11 H s       :     0.962753  s :     0.962753

SPIN
  0 C s       :    -0.017689  s :    -0.017689
      pz      :    -0.131683  p :    -0.173212
      px      :    -0.023993
      py      :    -0.017537
  1 C s       :     0.013528  s :     0.013528
      pz      :     0.208993  p :     0.235650
      px      :     0.020478
      py      :     0.006179
  2 C s       :     0.032230  s :     0.032230
      pz      :     0.380814  p :     0.446411
      px      :     0.043079
      py      :     0.022518
  3 C s       :    -0.017679  s :    -0.017679
      pz      :    -0.131531  p :    -0.173067
      px      :    -0.023997
      py      :    -0.017539
  4 C s       :     0.013505  s :     0.013505
      pz      :     0.208824  p :     0.235358
      px      :     0.020364
      py      :     0.006171
  5 C s       :     0.032218  s :     0.032218
      pz      :     0.380592  p :     0.446218
      px      :     0.043179
      py      :     0.022447
  6 H s       :     0.008254  s :     0.008254
  7 H s       :    -0.015100  s :    -0.015100
  8 H s       :    -0.029892  s :    -0.029892
  9 H s       :     0.008245  s :     0.008245
 10 H s       :    -0.015083  s :    -0.015083
 11 H s       :    -0.029896  s :    -0.029896


                      *****************************
                      * MAYER POPULATION ANALYSIS *
                      *****************************

  NA   - Mulliken gross atomic population
  ZA   - Total nuclear charge
  QA   - Mulliken gross atomic charge
  VA   - Mayer's total valence
  BVA  - Mayer's bonded valence
  FA   - Mayer's free valence

  ATOM       NA         ZA         QA         VA         BVA        FA
  0 C      6.2150     6.0000    -0.2150     3.7955     3.7561     0.0394
  1 C      6.3049     6.0000    -0.3049     3.7319     3.6680     0.0638
  2 C      6.3354     6.0000    -0.3354     3.6668     3.4506     0.2161
  3 C      6.2150     6.0000    -0.2150     3.7955     3.7561     0.0394
  4 C      6.3048     6.0000    -0.3048     3.7319     3.6682     0.0637
  5 C      6.3354     6.0000    -0.3354     3.6668     3.4509     0.2160
  6 H      0.8669     1.0000     0.1331     0.9467     0.9464     0.0003
  7 H      0.8838     1.0000     0.1162     0.9524     0.9516     0.0008
  8 H      0.8940     1.0000     0.1060     0.9554     0.9521     0.0032
  9 H      0.8669     1.0000     0.1331     0.9467     0.9464     0.0003
 10 H      0.8837     1.0000     0.1163     0.9524     0.9516     0.0008
 11 H      0.8940     1.0000     0.1060     0.9554     0.9522     0.0032

  Mayer bond orders larger than 0.1
B(  0-C ,  1-C ) :   1.5107 B(  0-C ,  5-C ) :   1.2877 B(  0-C ,  6-H ) :   0.9680 
B(  1-C ,  2-C ) :   1.1543 B(  1-C ,  7-H ) :   0.9714 B(  2-C ,  3-C ) :   1.2873 
B(  2-C ,  8-H ) :   0.9704 B(  3-C ,  4-C ) :   1.5111 B(  3-C ,  9-H ) :   0.9680 
B(  4-C ,  5-C ) :   1.1541 B(  4-C , 10-H ) :   0.9714 B(  5-C , 11-H ) :   0.9705 


-------
TIMINGS
-------

Total SCF time: 0 days 0 hours 0 min 3 sec 

Total time                  ....       3.209 sec
Sum of individual times     ....       3.605 sec  (112.4%)

Fock matrix formation       ....       3.177 sec  ( 99.0%)
Diagonalization             ....       0.016 sec  (  0.5%)
Density matrix formation    ....       0.001 sec  (  0.0%)
Population analysis         ....       0.003 sec  (  0.1%)
Initial guess               ....       0.290 sec  (  9.0%)
Orbital Transformation      ....       0.000 sec  (  0.0%)
Orbital Orthonormalization  ....       0.000 sec  (  0.0%)
DIIS solution               ....       0.004 sec  (  0.1%)

-------------------------   --------------------
FINAL SINGLE POINT ENERGY      -229.304255672767
-------------------------   --------------------


                            ***************************************
                            *     ORCA property calculations      *
                            ***************************************

                                    ---------------------
                                    Active property flags
                                    ---------------------
   (+) Dipole Moment


------------------------------------------------------------------------------
                       ORCA ELECTRIC PROPERTIES CALCULATION
------------------------------------------------------------------------------

Dipole Moment Calculation                       ... on
Quadrupole Moment Calculation                   ... off
Polarizability Calculation                      ... off
GBWName                                         ... benzen_orca_an.gbw
Electron density file                           ... benzen_orca_an.scfp.tmp

-------------
DIPOLE MOMENT
-------------
                                X             Y             Z
Electronic contribution:     -0.00017      -0.00023      -0.00067
Nuclear contribution   :      0.00000      -0.00000      -0.00000
                        -----------------------------------------
Total Dipole Moment    :     -0.00017      -0.00023      -0.00067
                        -----------------------------------------
Magnitude (a.u.)       :      0.00073
Magnitude (Debye)      :      0.00185


Timings for individual modules:

Sum of individual times         ...        3.623 sec (=   0.060 min)
GTO integral calculation        ...        0.118 sec (=   0.002 min)   3.2 %
SCF iterations                  ...        3.506 sec (=   0.058 min)  96.8 %
                             ****ORCA TERMINATED NORMALLY****
TOTAL RUN TIME: 0 days 0 hours 0 minutes 3 seconds 699 msec
