
                                 *****************
                                 * O   R   C   A *
                                 *****************

           --- An Ab Initio, DFT and Semiempirical electronic structure package ---

                  #######################################################
                  #                        -***-                        #
                  #  Department of molecular theory and spectroscopy    #
                  #              Directorship: Frank Neese              #
                  # Max Planck Institute for Chemical Energy Conversion #
                  #                  D-45470 Muelheim/Ruhr              #
                  #                       Germany                       #
                  #                                                     #
                  #                  All rights reserved                #
                  #                        -***-                        #
                  #######################################################


                         Program Version 3.0.3 - RELEASE   -


 With contributions from (in alphabetic order):
   Ute Becker             : Parallelization
   Dmytro Bykov           : SCF Hessian
   Dmitry Ganyushin       : Spin-Orbit,Spin-Spin,Magnetic field MRCI
   Andreas Hansen         : Spin unrestricted coupled pair/coupled cluster methods
   Dimitrios Liakos       : Extrapolation schemes; parallel MDCI
   Robert Izsak           : Overlap fitted RIJCOSX, COSX-SCS-MP3
   Christian Kollmar      : KDIIS, OOCD, Brueckner-CCSD(T), CCSD density
   Simone Kossmann        : Meta GGA functionals, TD-DFT gradient, OOMP2, MP2 Hessian
   Taras Petrenko         : DFT Hessian,TD-DFT gradient, ASA and ECA modules, normal mode analysis, Resonance Raman, ABS, FL, XAS/XES, NRVS
   Christoph Reimann      : Effective Core Potentials
   Michael Roemelt        : Restricted open shell CIS
   Christoph Riplinger    : Improved optimizer, TS searches, QM/MM, DLPNO-CCSD
   Barbara Sandhoefer     : DKH picture change effects
   Igor Schapiro          : Molecular dynamics
   Kantharuban Sivalingam : CASSCF convergence, NEVPT2
   Boris Wezisla          : Elementary symmetry handling
   Frank Wennmohs         : Technical directorship


 We gratefully acknowledge several colleagues who have allowed us to
 interface, adapt or use parts of their codes:
   Stefan Grimme, W. Hujo, H. Kruse, T. Risthaus : VdW corrections, initial TS optimization,
                                                   DFT functionals, gCP
   Ed Valeev                                     : LibInt (2-el integral package), F12 methods
   Garnet Chan, S. Sharma, R. Olivares           : DMRG
   Ulf Ekstrom                                   : XCFun DFT Library
   Mihaly Kallay                                 : mrcc  (arbitrary order and MRCC methods)
   Andreas Klamt, Michael Diedenhofen            : otool_cosmo (COSMO solvation model)
   Frank Weinhold                                : gennbo (NPA and NBO analysis)
   Christopher J. Cramer and Donald G. Truhlar   : smd solvation model


 Your calculation uses the libint2 library for the computation of 2-el integrals
 For citations please refer to: http://libint.valeyev.net

 This ORCA versions uses:
   CBLAS   interface :  Fast vector & matrix operations
   LAPACKE interface :  Fast linear algebra routines
   SCALAPACK package :  Parallel linear algebra routines


Your calculation utilizes the basis: 3-21G
Cite in your paper:
H - Ne: J.S. Binkley, J.A. Pople, W.J. Hehre, J. Am. Chem. Soc. 102 939 (1980)
Na - Ar: M.S. Gordon, J.S. Binkley, J.A. Pople, W.J. Pietro and W.J. Hehre,
         J. Am. Chem. Soc. 104, 2797 (1983).
 K - Ca: K.D. Dobbs, W.J. Hehre, J. Comput. Chem. 7, 359 (1986).
Ga - Kr: K.D. Dobbs, W.J. Hehre, J. Comput. Chem. 7, 359 (1986).
Sc - Zn: K.D. Dobbs, W.J. Hehre, J. Comput. Chem. 8, 861 (1987).
Y - Cd: K.D. Dobbs, W.J. Hehre, J. Comput. Chem. 8, 880 (1987).
Cs     : A 3-21G quality set derived from the Huzinage MIDI basis sets.
        E.D. Glendening and D. Feller, J. Phys. Chem. (to be published)

================================================================================
                                        WARNINGS
                       Please study these warnings very carefully!
================================================================================
Now building the actual basis set


INFO   : the flag for use of LIBINT has been found!

================================================================================
                                       INPUT FILE
================================================================================
NAME = benzene_orca.inp
|  1> # ================================================================
|  2> # Orca input file made in Gabedit
|  3> # ================================================================
|  4> !  HF 
|  5> ! PrintBasis 3-21G 
|  6> %output
|  7>      print[p_mos] 1
|  8>  end #output
|  9> * xyz 0   1
| 10>  C  -0.739000 1.189000 -0.007334
| 11>  C  0.614000 1.208000 0.351666
| 12>  C  1.353000 0.019000 0.358666
| 13>  C  0.739000 -1.189000 0.006666
| 14>  C  -0.614000 -1.208000 -0.351334
| 15>  C  -1.353000 -0.019000 -0.358334
| 16>  H  -1.309000 2.106000 -0.012334
| 17>  H  1.088000 2.140000 0.622666
| 18>  H  2.397000 0.034000 0.634666
| 19>  H  1.309000 -2.106000 0.012666
| 20>  H  -1.088000 -2.140000 -0.622334
| 21>  H  -2.397000 -0.034000 -0.635334
| 22> *
| 23> %geom Constraints
| 24>   {C 0 C}
| 25>   {C 1 C}
| 26>   {C 2 C}
| 27>   {C 3 C}
| 28>   {C 4 C}
| 29>   {C 5 C}
| 30>   {C 6 C}
| 31>   {C 7 C}
| 32>   {C 8 C}
| 33>   {C 9 C}
| 34>   {C 10 C}
| 35>   {C 11 C}
| 36>  end #Constraints
| 37>  invertConstraints true
| 38>  end #geom
| 39> 
| 40>                          ****END OF INPUT****
================================================================================

                       ****************************
                       * Single Point Calculation *
                       ****************************

---------------------------------
CARTESIAN COORDINATES (ANGSTROEM)
---------------------------------
  C     -0.739000    1.189000   -0.007334
  C      0.614000    1.208000    0.351666
  C      1.353000    0.019000    0.358666
  C      0.739000   -1.189000    0.006666
  C     -0.614000   -1.208000   -0.351334
  C     -1.353000   -0.019000   -0.358334
  H     -1.309000    2.106000   -0.012334
  H      1.088000    2.140000    0.622666
  H      2.397000    0.034000    0.634666
  H      1.309000   -2.106000    0.012666
  H     -1.088000   -2.140000   -0.622334
  H     -2.397000   -0.034000   -0.635334

----------------------------
CARTESIAN COORDINATES (A.U.)
----------------------------
  NO LB      ZA    FRAG    MASS        X           Y           Z
   0 C     6.0000    0    12.011         -1.396507612967805          2.246884373232368         -0.013859251466178
   1 C     6.0000    0    12.011          1.160291846227649          2.282789169776872          0.664552430611551
   2 C     6.0000    0    12.011          2.556799459195453          0.035904796544504          0.677780513549000
   3 C     6.0000    0    12.011          1.396507612967805         -2.246884373232368          0.012596914408719
   4 C     6.0000    0    12.011         -1.160291846227649         -2.282789169776872         -0.663925041535089
   5 C     6.0000    0    12.011         -2.556799459195453         -0.035904796544504         -0.677153124472538
   6 H     1.0000    0     1.008         -2.473651509302918          3.979763238038156         -0.023307882135785
   7 H     1.0000    0     1.008          2.056022033706322          4.044013926591479          1.176668212904210
   8 H     1.0000    0     1.008          4.529673543009240          0.064250688553323          1.199344926511265
   9 H     1.0000    0     1.008          2.473651509302918         -3.979763238038156          0.023935271212247
  10 H     1.0000    0     1.008         -2.056022033706322         -4.044013926591479         -1.176040823827748
  11 H     1.0000    0     1.008         -4.529673543009240         -0.064250688553323         -1.200607263568724

--------------------------------
INTERNAL COORDINATES (ANGSTROEM)
--------------------------------
 C      0   0   0   0.000000     0.000     0.000
 C      1   0   0   1.399947     0.000     0.000
 C      2   1   0   1.399961   119.995     0.000
 C      3   2   1   1.400059   120.003     0.000
 C      4   3   2   1.399691   119.996   359.955
 C      1   2   3   1.399807   119.996     0.045
 H      1   2   3   1.079729   119.991   179.976
 H      2   1   3   1.080158   120.010   179.962
 H      3   2   1   1.079971   119.985   179.938
 H      4   3   2   1.079734   119.991   180.034
 H      5   4   3   1.080158   120.005   180.038
 H      6   1   2   1.080227   120.013   179.996

---------------------------
INTERNAL COORDINATES (A.U.)
---------------------------
 C      0   0   0   0.000000     0.000     0.000
 C      1   0   0   2.645516     0.000     0.000
 C      2   1   0   2.645543   119.995     0.000
 C      3   2   1   2.645727   120.003     0.000
 C      4   3   2   2.645032   119.996   359.955
 C      1   2   3   2.645253   119.996     0.045
 H      1   2   3   2.040391   119.991   179.976
 H      2   1   3   2.041203   120.010   179.962
 H      3   2   1   2.040849   119.985   179.938
 H      4   3   2   2.040401   119.991   180.034
 H      5   4   3   2.041203   120.005   180.038
 H      6   1   2   2.041333   120.013   179.996

---------------------
BASIS SET INFORMATION
---------------------
There are 2 groups of distinct atoms

 Group   1 Type C   : 6s3p contracted to 3s2p pattern {321/21}
 Group   2 Type H   : 3s contracted to 2s pattern {21}

Atom   0C    basis set group =>   1
Atom   1C    basis set group =>   1
Atom   2C    basis set group =>   1
Atom   3C    basis set group =>   1
Atom   4C    basis set group =>   1
Atom   5C    basis set group =>   1
Atom   6H    basis set group =>   2
Atom   7H    basis set group =>   2
Atom   8H    basis set group =>   2
Atom   9H    basis set group =>   2
Atom  10H    basis set group =>   2
Atom  11H    basis set group =>   2

-------------------------
BASIS SET IN INPUT FORMAT
-------------------------

 # Basis set for element : H 
 NewGTO H 
 S 2 
   1       5.4471780000      0.1562849807
   2       0.8245470000      0.9046908881
 S 1 
   1       0.1831920000      1.0000000000
  end;

 # Basis set for element : C 
 NewGTO C 
 S 3 
   1     172.2560000000      0.0617669074
   2      25.9109000000      0.3587940429
   3       5.5333500000      0.7007130837
 S 2 
   1       3.6649800000     -0.3958951621
   2       0.7705450000      1.2158343557
 S 1 
   1       0.1958570000      1.0000000000
 P 2 
   1       3.6649800000      0.2364599466
   2       0.7705450000      0.8606188057
 P 1 
   1       0.1958570000      1.0000000000
  end;

------------------------------------------------------------------------------
                           ORCA GTO INTEGRAL CALCULATION
------------------------------------------------------------------------------

                         BASIS SET STATISTICS AND STARTUP INFO

 # of primitive gaussian shells          ...   72
 # of primitive gaussian functions       ...  108
 # of contracted shell                   ...   42
 # of contracted basis functions         ...   66
 Highest angular momentum                ...    1
 Maximum contraction depth               ...    3
 Integral package used                   ... LIBINT
 Integral threshhold            Thresh   ...  1.000e-10
 Primitive cut-off              TCut     ...  1.000e-11


                              INTEGRAL EVALUATION

 One electron integrals                  ... done
 Pre-screening matrix                    ... done
 Shell pair data                         ... done (   0.000 sec)

-------------------------------------------------------------------------------
                                 ORCA SCF
-------------------------------------------------------------------------------

------------
SCF SETTINGS
------------
Hamiltonian:
 Ab initio Hamiltonian  Method          .... Hartree-Fock(GTOs)


General Settings:
 Integral files         IntName         .... benzene_orca
 Hartree-Fock type      HFTyp           .... RHF
 Total Charge           Charge          ....    0
 Multiplicity           Mult            ....    1
 Number of Electrons    NEL             ....   42
 Basis Dimension        Dim             ....   66
 Nuclear Repulsion      ENuc            ....    202.9797467944 Eh

Convergence Acceleration:
 DIIS                   CNVDIIS         .... on
   Start iteration      DIISMaxIt       ....    12
   Startup error        DIISStart       ....  0.200000
   # of expansion vecs  DIISMaxEq       ....     5
   Bias factor          DIISBfac        ....   1.050
   Max. coefficient     DIISMaxC        ....  10.000
 Newton-Raphson         CNVNR           .... off
 SOSCF                  CNVSOSCF        .... on
   Start iteration      SOSCFMaxIt      ....   150
   Startup grad/error   SOSCFStart      ....  0.003300
 Level Shifting         CNVShift        .... on
   Level shift para.    LevelShift      ....    0.2500
   Turn off err/grad.   ShiftErr        ....    0.0010
 Zerner damping         CNVZerner       .... off
 Static damping         CNVDamp         .... on
   Fraction old density DampFac         ....    0.7000
   Max. Damping (<1)    DampMax         ....    0.9800
   Min. Damping (>=0)   DampMin         ....    0.0000
   Turn off err/grad.   DampErr         ....    0.1000
 Fernandez-Rico         CNVRico         .... off

SCF Procedure:
 Maximum # iterations   MaxIter         ....   125
 SCF integral mode      SCFMode         .... Direct
   Integral package                     .... LIBINT
 Reset frequeny         DirectResetFreq ....    20
 Integral Threshold     Thresh          ....  1.000e-10 Eh
 Primitive CutOff       TCut            ....  1.000e-11 Eh

Convergence Tolerance:
 Convergence Check Mode ConvCheckMode   .... Total+1el-Energy
 Energy Change          TolE            ....  1.000e-06 Eh
 1-El. energy change                    ....  1.000e-03 Eh
 Orbital Gradient       TolG            ....  5.000e-05
 Orbital Rotation angle TolX            ....  5.000e-05
 DIIS Error             TolErr          ....  1.000e-06


Diagonalization of the overlap matrix:
Smallest eigenvalue                        ... 1.824e-03
Time for diagonalization                   ...    0.001 sec
Threshold for overlap eigenvalues          ... 1.000e-08
Number of eigenvalues below threshold      ... 0
Time for construction of square roots      ...    0.000 sec
Total time needed                          ...    0.001 sec

-------------------
DFT GRID GENERATION
-------------------

General Integration Accuracy     IntAcc      ...  4.340
Radial Grid Type                 RadialGrid  ... Gauss-Chebyshev
Angular Grid (max. acc.)         AngularGrid ... Lebedev-110
Angular grid pruning method      GridPruning ... 3 (G Style)
Weight generation scheme         WeightScheme... Becke
Basis function cutoff            BFCut       ...    1.0000e-10
Integration weight cutoff        WCut        ...    1.0000e-14
Grids for H and He will be reduced by one unit

# of grid points (after initial pruning)     ...  14700 (   0.0 sec)
# of grid points (after weights+screening)   ...  13826 (   0.0 sec)
nearest neighbour list constructed           ...    0.0 sec
Grid point re-assignment to atoms done       ...    0.0 sec
Grid point division into batches done        ...    0.0 sec
Reduced shell lists constructed in    0.1 sec

Total number of grid points                  ...    13826
Total number of batches                      ...      222
Average number of points per batch           ...       62
Average number of grid points per atom       ...     1152
Average number of shells per batch           ...    30.29 (72.11%)
Average number of basis functions per batch  ...    50.77 (76.93%)
Average number of large shells per batch     ...    24.87 (82.11%)
Average number of large basis fcns per batch ...    42.51 (83.73%)
Maximum spatial batch extension              ...  18.99, 20.20, 22.45 au
Average spatial batch extension              ...   4.03,  4.03,  5.00 au

Time for grid setup =    0.112 sec

------------------------------
INITIAL GUESS: MODEL POTENTIAL
------------------------------
Loading Hartree-Fock densities                     ... done
Calculating cut-offs                               ... done
Setting up the integral package                    ... done
Initializing the effective Hamiltonian             ... done
Starting the Coulomb interaction                   ... done (   0.0 sec)
Reading the grid                                   ... done
Mapping shells                                     ... done
Starting the XC term evaluation                    ... done (   0.1 sec)
Transforming the Hamiltonian                       ... done (   0.0 sec)
Diagonalizing the Hamiltonian                      ... done (   0.0 sec)
Back transforming the eigenvectors                 ... done (   0.0 sec)
Now organizing SCF variables                       ... done
                      ------------------
                      INITIAL GUESS DONE (   0.3 sec)
                      ------------------
--------------
SCF ITERATIONS
--------------
ITER       Energy         Delta-E        Max-DP      RMS-DP      [F,P]     Damp
               ***  Starting incremental Fock matrix formation  ***
  0   -229.2459857485   0.000000000000 0.03087307  0.00353009  0.1332293 0.7000
  1   -229.3040643716  -0.058078623120 0.02547878  0.00281533  0.0947221 0.7000
                               ***Turning on DIIS***
  2   -229.3410130690  -0.036948697391 0.05904846  0.00643288  0.0707435 0.0000
  3   -229.1735710424   0.167442026550 0.00942340  0.00143697  0.0181334 0.0000
                      *** Initiating the SOSCF procedure ***
                           *** Shutting down DIIS ***
                      *** Re-Reading the Fockian *** 
                      *** Removing any level shift *** 
ITER      Energy       Delta-E        Grad      Rot      Max-DP    RMS-DP
  4   -229.40611134  -0.2325403025  0.002161  0.002161  0.003617  0.000395
               *** Restarting incremental Fock matrix formation ***
  5   -229.41773901  -0.0116276635  0.000690  0.000696  0.001215  0.000150
  6   -229.41774606  -0.0000070497  0.000154  0.000214  0.000385  0.000047
  7   -229.41774660  -0.0000005434  0.000022  0.000015  0.000025  0.000002
                 **** Energy Check signals convergence ****
              ***Rediagonalizing the Fockian in SOSCF/NRSCF***

               *****************************************************
               *                     SUCCESS                       *
               *           SCF CONVERGED AFTER   8 CYCLES          *
               *****************************************************


----------------
TOTAL SCF ENERGY
----------------

Total Energy       :         -229.41774660 Eh           -6242.77426 eV

Components:
Nuclear Repulsion  :          202.97974679 Eh            5523.35971 eV
Electronic Energy  :         -432.39749340 Eh          -11766.13397 eV

One Electron Energy:         -710.38345327 Eh          -19330.51651 eV
Two Electron Energy:          277.98595988 Eh            7564.38253 eV

Virial components:
Potential Energy   :         -458.11723269 Eh          -12466.00366 eV
Kinetic Energy     :          228.69948609 Eh            6223.22940 eV
Virial Ratio       :            2.00314063


---------------
SCF CONVERGENCE
---------------

  Last Energy change         ...   -1.9926e-09  Tolerance :   1.0000e-06
  Last MAX-Density change    ...    6.2618e-06  Tolerance :   1.0000e-05
  Last RMS-Density change    ...    5.8503e-07  Tolerance :   1.0000e-06
  Last Orbital Gradient      ...    4.4431e-06  Tolerance :   5.0000e-05
  Last Orbital Rotation      ...    3.6455e-06  Tolerance :   5.0000e-05

             **** THE GBW FILE WAS UPDATED (benzene_orca.gbw) ****
             **** DENSITY FILE WAS UPDATED (benzene_orca.scfp.tmp) ****
             **** ENERGY FILE WAS UPDATED (benzene_orca.en.tmp) ****
----------------
ORBITAL ENERGIES
----------------

  NO   OCC          E(Eh)            E(eV) 
   0   2.0000     -11.181263      -304.2576 
   1   2.0000     -11.181037      -304.2515 
   2   2.0000     -11.181010      -304.2508 
   3   2.0000     -11.180762      -304.2440 
   4   2.0000     -11.180735      -304.2433 
   5   2.0000     -11.180157      -304.2275 
   6   2.0000      -1.147455       -31.2238 
   7   2.0000      -1.010905       -27.5081 
   8   2.0000      -1.010827       -27.5060 
   9   2.0000      -0.822020       -22.3683 
  10   2.0000      -0.821943       -22.3662 
  11   2.0000      -0.713358       -19.4115 
  12   2.0000      -0.640672       -17.4336 
  13   2.0000      -0.618660       -16.8346 
  14   2.0000      -0.589498       -16.0411 
  15   2.0000      -0.589381       -16.0379 
  16   2.0000      -0.502164       -13.6646 
  17   2.0000      -0.490536       -13.3482 
  18   2.0000      -0.490527       -13.3479 
  19   2.0000      -0.336396        -9.1538 
  20   2.0000      -0.336344        -9.1524 
  21   0.0000       0.147028         4.0008 
  22   0.0000       0.147054         4.0015 
  23   0.0000       0.255274         6.9464 
  24   0.0000       0.322361         8.7719 
  25   0.0000       0.322441         8.7741 
  26   0.0000       0.366656         9.9772 
  27   0.0000       0.367014         9.9870 
  28   0.0000       0.367036         9.9876 
  29   0.0000       0.369867        10.0646 
  30   0.0000       0.500979        13.6323 
  31   0.0000       0.501075        13.6350 
  32   0.0000       0.515301        14.0221 
  33   0.0000       0.515365        14.0238 
  34   0.0000       0.798442        21.7267 
  35   0.0000       0.813374        22.1330 
  36   0.0000       0.882069        24.0023 
  37   0.0000       0.902789        24.5661 
  38   0.0000       0.957326        26.0502 
  39   0.0000       0.999627        27.2012 
  40   0.0000       0.999734        27.2041 
  41   0.0000       1.053821        28.6759 
  42   0.0000       1.053843        28.6765 
  43   0.0000       1.078971        29.3603 
  44   0.0000       1.079046        29.3623 
  45   0.0000       1.105287        30.0764 
  46   0.0000       1.105294        30.0766 
  47   0.0000       1.136088        30.9145 
  48   0.0000       1.175122        31.9767 
  49   0.0000       1.277657        34.7668 
  50   0.0000       1.309737        35.6398 
  51   0.0000       1.309972        35.6462 
  52   0.0000       1.406865        38.2827 
  53   0.0000       1.410245        38.3747 
  54   0.0000       1.410485        38.3813 
  55   0.0000       1.555215        42.3196 
  56   0.0000       1.555294        42.3217 
  57   0.0000       1.595576        43.4178 
  58   0.0000       1.713270        46.6205 
  59   0.0000       1.726795        46.9885 
  60   0.0000       1.727010        46.9943 
  61   0.0000       1.803706        49.0813 
  62   0.0000       1.803863        49.0856 
  63   0.0000       2.160573        58.7922 
  64   0.0000       2.160694        58.7955 
  65   0.0000       2.749798        74.8258 
------------------
MOLECULAR ORBITALS
------------------
                      0         1         2         3         4         5   
                 -11.18126 -11.18104 -11.18101 -11.18076 -11.18074 -11.18016
                   2.00000   2.00000   2.00000   2.00000   2.00000   2.00000
                  --------  --------  --------  --------  --------  --------
  0C   1s         0.391440  0.025103 -0.550436  0.002981  0.589849 -0.412375
  0C   2s         0.043753  0.002639 -0.057164  0.000272  0.057564 -0.037859
  0C   3s        -0.084148 -0.003217  0.056728 -0.000030 -0.034779  0.015246
  0C   1pz        0.000006 -0.000057 -0.000017  0.000493 -0.000005  0.000001
  0C   1px        0.000619 -0.000123 -0.000842  0.001368  0.000340  0.000585
  0C   1py       -0.000996 -0.000155  0.001309  0.000849 -0.000607 -0.000962
  0C   2pz       -0.000254  0.002778  0.000192 -0.003171  0.000016  0.000010
  0C   2px       -0.020502  0.007120  0.008385 -0.008763 -0.001640 -0.001325
  0C   2py        0.032707  0.005770 -0.012843 -0.005517  0.002899  0.002247
  1C   1s        -0.429409  0.494726  0.305229 -0.473020  0.277183 -0.389785
  1C   2s        -0.047447  0.051160  0.031441 -0.045885  0.026697 -0.035498
  1C   3s         0.086339 -0.049507 -0.029689  0.025294 -0.012674  0.012614
  1C   1pz        0.000295 -0.000324 -0.000214  0.000260  0.000149 -0.000297
  1C   1px        0.000484 -0.000528 -0.000448  0.000977  0.001126 -0.000517
  1C   1py        0.001068 -0.001176 -0.000603  0.000017 -0.000931 -0.001024
  1C   2pz       -0.009700  0.002562  0.003087 -0.001174 -0.001576  0.000881
  1C   2px       -0.016758  0.001651  0.010109 -0.005507 -0.008451  0.001628
  1C   2py       -0.033600  0.013493  0.002706  0.001747  0.004067  0.002893
  2C   1s         0.416233 -0.481106  0.295392 -0.510826 -0.254248 -0.396568
  2C   2s         0.046118 -0.049918  0.030553 -0.049714 -0.024523 -0.036197
  2C   3s        -0.085171  0.049392 -0.030439  0.028392  0.011690  0.013445
  2C   1pz       -0.000297  0.000326 -0.000214  0.000268 -0.000138 -0.000302
  2C   1px       -0.001153  0.001290 -0.000717  0.000531  0.000342 -0.001134
  2C   1py        0.000039 -0.000086 -0.000153  0.000808 -0.001456 -0.000035
  2C   2pz        0.009786 -0.002748  0.003312 -0.001198  0.001498  0.000840
  2C   2px        0.037248 -0.013083  0.007674 -0.001498  0.000012  0.003020
  2C   2py       -0.000048  0.004407  0.008202 -0.005079  0.009527  0.000322
  3C   1s        -0.373986  0.001161 -0.571176 -0.022562 -0.577550 -0.417897
  3C   2s        -0.041896  0.000098 -0.059398 -0.002245 -0.056364 -0.038351
  3C   3s         0.082086  0.000446  0.060268  0.001728  0.033928  0.015051
  3C   1pz        0.000004  0.000029  0.000001  0.000496 -0.000009 -0.000010
  3C   1px        0.000580  0.000073  0.000834  0.001389  0.000338 -0.000603
  3C   1py       -0.000939  0.000059 -0.001374  0.000830 -0.000609  0.000949
  3C   2pz       -0.000125 -0.002600 -0.000094 -0.003327  0.000082  0.000043
  3C   2px       -0.019909 -0.007385 -0.008946 -0.009393 -0.001443  0.001589
  3C   2py        0.032340 -0.004191  0.014260 -0.005461  0.002871 -0.002411
  4C   1s         0.396332  0.477206  0.304908  0.503718 -0.283186 -0.403882
  4C   2s         0.044064  0.049668  0.031629  0.049131 -0.027393 -0.036913
  4C   3s        -0.083208 -0.050881 -0.032083 -0.028810  0.013709  0.013888
  4C   1pz        0.000278  0.000321  0.000218  0.000287  0.000137  0.000294
  4C   1px        0.000453  0.000509  0.000454  0.001026  0.001106  0.000518
  4C   1py        0.001009  0.001194  0.000631  0.000114 -0.000975  0.001000
  4C   2pz       -0.009470 -0.002866 -0.003429 -0.001425 -0.001486 -0.000808
  4C   2px       -0.016321 -0.002096 -0.010690 -0.005917 -0.008281 -0.001541
  4C   2py       -0.032976 -0.014728 -0.003969  0.000820  0.004402 -0.002560
  5C   1s        -0.411930 -0.520027  0.269048  0.484868  0.266246 -0.395393
  5C   2s        -0.045627 -0.053914  0.027776  0.047083  0.025691 -0.036036
  5C   3s         0.084494  0.053873 -0.026604 -0.026060 -0.012503  0.012879
  5C   1pz       -0.000290 -0.000353  0.000192  0.000256 -0.000141  0.000301
  5C   1px       -0.001122 -0.001355  0.000665  0.000490  0.000341  0.001141
  5C   1py        0.000031  0.000015  0.000118  0.000815 -0.001460  0.000003
  5C   2pz        0.009777  0.003197 -0.002883 -0.001117  0.001500 -0.000892
  5C   2px        0.036984  0.014533 -0.006224 -0.000945 -0.000113 -0.003319
  5C   2py        0.000429 -0.003920 -0.007954 -0.005538  0.009697 -0.000108
  6H   1s        -0.001506 -0.000060  0.000897 -0.000010 -0.001297  0.001251
  6H   2s        -0.004047  0.000022 -0.002409  0.000034  0.005678 -0.006590
  7H   1s         0.001588 -0.000821 -0.000512  0.001029 -0.000577  0.001204
  7H   2s         0.003660  0.002368  0.001602 -0.004870  0.003137 -0.006522
  8H   1s        -0.001561  0.000787 -0.000529  0.001095  0.000521  0.001225
  8H   2s        -0.003754 -0.002161  0.001326 -0.005137 -0.002850 -0.006537
  9H   1s         0.001482  0.000017  0.000968  0.000050  0.001268  0.001258
  9H   2s         0.004078  0.000080 -0.002312 -0.000178 -0.005550 -0.006709
 10H   1s        -0.001527 -0.000809 -0.000537 -0.001074  0.000579  0.001239
 10H   2s        -0.003850  0.001892  0.001292  0.004945 -0.003091 -0.006602
 11H   1s         0.001558  0.000895 -0.000445 -0.001043 -0.000549  0.001215
 11H   2s         0.003726 -0.002254  0.001364  0.004959  0.002975 -0.006585
                      6         7         8         9        10        11   
                  -1.14746  -1.01090  -1.01083  -0.82202  -0.82194  -0.71336
                   2.00000   2.00000   2.00000   2.00000   2.00000   2.00000
                  --------  --------  --------  --------  --------  --------
  0C   1s         0.097272 -0.129136  0.044725 -0.104190 -0.026977 -0.010833
  0C   2s        -0.109001  0.138408 -0.047936  0.107608  0.027866  0.006605
  0C   3s        -0.183904  0.304702 -0.105544  0.333482  0.086351  0.055056
  0C   1pz       -0.000325  0.009947  0.028169  0.013167 -0.051728 -0.000855
  0C   1px       -0.030925  0.040707  0.073489  0.009457 -0.150284 -0.089188
  0C   1py        0.049807 -0.005114  0.056403  0.067531 -0.077820  0.143480
  0C   2pz       -0.000087  0.001148  0.002969  0.004849 -0.018714 -0.000533
  0C   2px       -0.006016  0.009075  0.006185  0.008926 -0.052994 -0.056838
  0C   2py        0.009681 -0.008188  0.008662  0.015608 -0.030475  0.091443
  1C   1s         0.097237 -0.103270 -0.089487  0.028704  0.103749 -0.010840
  1C   2s        -0.108963  0.110686  0.095908 -0.029645 -0.107149  0.006608
  1C   3s        -0.183807  0.243613  0.211172 -0.091881 -0.332091  0.055050
  1C   1pz        0.014744 -0.015301  0.007102 -0.030079 -0.005677  0.042398
  1C   1px        0.025724 -0.066698  0.058672 -0.157769  0.019191  0.074131
  1C   1py        0.050582  0.014312 -0.052704  0.072342 -0.068296  0.145635
  1C   2pz        0.002872 -0.003457 -0.000811 -0.010164  0.000570  0.027021
  1C   2px        0.004985 -0.010240  0.003525 -0.055860  0.011504  0.047244
  1C   2py        0.009825 -0.004658 -0.010997  0.028681 -0.015777  0.092834
  2C   1s         0.097231  0.025792 -0.134203  0.075463 -0.076757 -0.010867
  2C   2s        -0.108956 -0.027643  0.143835 -0.077941  0.079273  0.006637
  2C   3s        -0.183797 -0.060825  0.316638 -0.241528  0.245685  0.055164
  2C   1pz        0.015033  0.015565 -0.004181 -0.028106 -0.008354  0.043246
  2C   1px        0.056646 -0.000161 -0.026981 -0.029825  0.043785  0.163258
  2C   1py        0.000787  0.099050  0.018743 -0.128895 -0.125778  0.002395
  2C   2pz        0.002934  0.002133 -0.002860 -0.008230 -0.005010  0.027551
  2C   2px        0.010993  0.001700 -0.011866 -0.003500  0.008445  0.104046
  2C   2py        0.000143  0.010569  0.001887 -0.046586 -0.045649  0.001523
  3C   1s         0.097275  0.129131 -0.044718 -0.104194 -0.027003 -0.010795
  3C   2s        -0.109004 -0.138405  0.047921  0.107614  0.027879  0.006566
  3C   3s        -0.183901 -0.304674  0.105558  0.333489  0.086477  0.054925
  3C   1pz        0.000273  0.009872  0.028194 -0.013062  0.051738  0.000856
  3C   1px        0.031009  0.040831  0.073470 -0.009494  0.150308  0.089185
  3C   1py       -0.049756 -0.005041  0.056364 -0.067528  0.077743 -0.143464
  3C   2pz        0.000025  0.001050  0.003008 -0.004754  0.018733  0.000555
  3C   2px        0.006018  0.009104  0.006176 -0.008954  0.053002  0.056834
  3C   2py       -0.009674 -0.008162  0.008658 -0.015608  0.030455 -0.091433
  4C   1s         0.097288  0.103301  0.089436  0.028741  0.103708 -0.010876
  4C   2s        -0.109022 -0.110723 -0.095853 -0.029680 -0.107108  0.006643
  4C   3s        -0.183911 -0.243697 -0.211051 -0.092015 -0.331978  0.055187
  4C   1pz       -0.014720 -0.015272  0.007121  0.030059  0.005706 -0.042397
  4C   1px       -0.025763 -0.066780  0.058646  0.157849 -0.019197 -0.074218
  4C   1py       -0.050599  0.014347 -0.052686 -0.072376  0.068273 -0.145666
  4C   2pz       -0.002856 -0.003409 -0.000812  0.010154 -0.000539 -0.027023
  4C   2px       -0.005005 -0.010264  0.003511  0.055872 -0.011506 -0.047285
  4C   2py       -0.009829 -0.004657 -0.010993 -0.028702  0.015762 -0.092865
  5C   1s         0.097274 -0.025856  0.134162  0.075480 -0.076732 -0.010855
  5C   2s        -0.109007  0.027716 -0.143794 -0.077954  0.079249  0.006621
  5C   3s        -0.183878  0.060976 -0.316545 -0.241587  0.245611  0.055137
  5C   1pz       -0.015003  0.015550 -0.004131  0.028125  0.008277 -0.043257
  5C   1px       -0.056692 -0.000137 -0.027022  0.029762 -0.043682 -0.163173
  5C   1py       -0.000811  0.099111  0.018670  0.128969  0.125787 -0.002429
  5C   2pz       -0.002899  0.002095 -0.002800  0.008259  0.004953 -0.027575
  5C   2px       -0.011009  0.001712 -0.011887  0.003472 -0.008396 -0.103993
  5C   2py       -0.000152  0.010577  0.001866  0.046604  0.045647 -0.001542
  6H   1s        -0.034029  0.068869 -0.023851  0.103874  0.026874  0.103731
  6H   2s         0.005024  0.014221 -0.004930  0.051145  0.013234  0.065977
  7H   1s        -0.033983  0.055017  0.047692 -0.028578 -0.103324  0.103639
  7H   2s         0.005015  0.011367  0.009865 -0.014081 -0.050922  0.065956
  8H   1s        -0.033997 -0.013742  0.071552 -0.075174  0.076474  0.103723
  8H   2s         0.005022 -0.002837  0.014786 -0.037026  0.037676  0.065995
  9H   1s        -0.034030 -0.068863  0.023862  0.103861  0.026948  0.103690
  9H   2s         0.005025 -0.014218  0.004935  0.051140  0.013276  0.065955
 10H   1s        -0.034000 -0.055033 -0.047664 -0.028609 -0.103281  0.103706
 10H   2s         0.005016 -0.011367 -0.009864 -0.014103 -0.050898  0.065991
 11H   1s        -0.033990  0.013762 -0.071486 -0.075142  0.076382  0.103646
 11H   2s         0.005018  0.002837 -0.014782 -0.037024  0.037641  0.065968
                     12        13        14        15        16        17   
                  -0.64067  -0.61866  -0.58950  -0.58938  -0.50216  -0.49054
                   2.00000   2.00000   2.00000   2.00000   2.00000   2.00000
                  --------  --------  --------  --------  --------  --------
  0C   1s        -0.060922  0.000024 -0.020619 -0.003860 -0.000054  0.004562
  0C   2s         0.063868 -0.000019  0.025340  0.004744  0.000064 -0.005458
  0C   3s         0.195133 -0.000126  0.035560  0.006672  0.000183 -0.020543
  0C   1pz       -0.000541 -0.071584  0.005257 -0.020879 -0.172030 -0.000492
  0C   1px       -0.058540 -0.198230  0.144519 -0.033431  0.046080 -0.097965
  0C   1py        0.094075 -0.123847 -0.208061 -0.076702  0.026715  0.165177
  0C   2pz       -0.000600 -0.041747  0.003138 -0.011190 -0.168241 -0.001074
  0C   2px       -0.064645 -0.115577  0.110564 -0.011836  0.045021 -0.121307
  0C   2py        0.103962 -0.072277 -0.164712 -0.051185  0.025850  0.200382
  1C   1s         0.060991 -0.000018 -0.013535  0.015887  0.000009 -0.002335
  1C   2s        -0.063937  0.000014  0.016656 -0.019535 -0.000011  0.002800
  1C   3s        -0.195366  0.000090  0.023214 -0.027375 -0.000022  0.010527
  1C   1pz       -0.027686  0.036954 -0.050522  0.041793 -0.172310  0.004000
  1C   1px       -0.048293  0.210872 -0.121747  0.044210  0.044381  0.125347
  1C   1py       -0.095319 -0.117649 -0.117676  0.191984  0.027509 -0.179566
  1C   2pz       -0.030643  0.021565 -0.037551  0.034560 -0.168418 -0.011091
  1C   2px       -0.053517  0.123011 -0.083656  0.044870  0.043654  0.060862
  1C   2py       -0.105403 -0.068551 -0.098961  0.144859  0.026778 -0.167624
  2C   1s        -0.060974  0.000050  0.006893  0.019731  0.000043 -0.002194
  2C   2s         0.063924 -0.000054 -0.008481 -0.024258 -0.000051  0.002633
  2C   3s         0.195281 -0.000134 -0.011821 -0.033971 -0.000142  0.009875
  2C   1pz        0.028210  0.034824  0.031805  0.058631 -0.172025  0.003937
  2C   1px        0.106680 -0.012412  0.079200  0.236109  0.045908 -0.100034
  2C   1py        0.001547  0.241483  0.069716 -0.021121  0.026675  0.195993
  2C   2pz        0.031226  0.020320  0.022528  0.046828 -0.168124 -0.010553
  2C   2px        0.118019 -0.007201  0.063060  0.184837  0.045083 -0.116422
  2C   2py        0.001726  0.140854  0.037825 -0.010562  0.026206  0.131471
  3C   1s         0.060923 -0.000019  0.020621  0.003854 -0.000054  0.004570
  3C   2s        -0.063867  0.000032 -0.025343 -0.004730  0.000064 -0.005468
  3C   3s        -0.195155  0.000052 -0.035566 -0.006691  0.000177 -0.020559
  3C   1pz       -0.000660 -0.071572  0.005264 -0.020924 -0.172335 -0.000906
  3C   1px       -0.058707 -0.198277  0.144578 -0.033567  0.044463  0.098196
  3C   1py        0.094083 -0.123738 -0.208001 -0.076604  0.027471 -0.165068
  3C   2pz       -0.000680 -0.041736  0.003161 -0.011208 -0.168450 -0.000290
  3C   2px       -0.064747 -0.115623  0.110579 -0.011940  0.043463  0.121566
  3C   2py        0.103978 -0.072182 -0.164684 -0.051103  0.027113 -0.200241
  4C   1s        -0.060990  0.000015  0.013517 -0.015895  0.000012 -0.002364
  4C   2s         0.063938 -0.000004 -0.016645  0.019547 -0.000013  0.002827
  4C   3s         0.195339 -0.000108 -0.023110  0.027409 -0.000042  0.010654
  4C   1pz       -0.027618  0.036818 -0.050473  0.041789 -0.172098 -0.005228
  4C   1px       -0.048163  0.210936 -0.121851  0.044350  0.046041 -0.124863
  4C   1py       -0.095253 -0.117756 -0.117762  0.191855  0.026562  0.179813
  4C   2pz       -0.030590  0.021477 -0.037532  0.034542 -0.168295  0.009810
  4C   2px       -0.053436  0.123013 -0.083720  0.044945  0.044753 -0.060379
  4C   2py       -0.105358 -0.068657 -0.099033  0.144781  0.026112  0.167899
  5C   1s         0.060989 -0.000061 -0.006872 -0.019707  0.000044 -0.002211
  5C   2s        -0.063935  0.000071  0.008468  0.024246 -0.000053  0.002650
  5C   3s        -0.195325  0.000153  0.011703  0.033854 -0.000154  0.009948
  5C   1pz        0.028294  0.034687  0.031835  0.058679 -0.172341 -0.005087
  5C   1px        0.106632 -0.012464  0.079335  0.235998  0.044466  0.100520
  5C   1py        0.001521  0.241611  0.069773 -0.021014  0.027558 -0.195670
  5C   2pz        0.031296  0.020232  0.022569  0.046877 -0.168562  0.009367
  5C   2px        0.117993 -0.007257  0.063166  0.184741  0.043292  0.116941
  5C   2py        0.001710  0.140905  0.037855 -0.010500  0.026784 -0.131154
  6H   1s         0.129023 -0.000148 -0.150521 -0.028195 -0.000592  0.152135
  6H   2s         0.073771 -0.000091 -0.119683 -0.022414 -0.000432  0.122915
  7H   1s        -0.128781  0.000204 -0.099832  0.116377 -0.000034 -0.078404
  7H   2s        -0.073675  0.000138 -0.079364  0.092578 -0.000049 -0.063404
  8H   1s         0.128767  0.000102  0.051034  0.144608  0.000562 -0.073699
  8H   2s         0.073633  0.000067  0.040542  0.115011  0.000405 -0.059595
  9H   1s        -0.129084  0.000036  0.150506  0.028100 -0.000571  0.152143
  9H   2s        -0.073819  0.000021  0.119671  0.022346 -0.000408  0.122929
 10H   1s         0.128695 -0.000143  0.099925 -0.116332  0.000030 -0.078458
 10H   2s         0.073609 -0.000114  0.079433 -0.092544  0.000028 -0.063450
 11H   1s        -0.128734 -0.000058 -0.051145 -0.144546  0.000606 -0.073801
 11H   2s        -0.073651 -0.000042 -0.040639 -0.115003  0.000458 -0.059713
                     18        19        20        21        22        23   
                  -0.49053  -0.33640  -0.33634   0.14703   0.14705   0.25527
                   2.00000   2.00000   2.00000   0.00000   0.00000   0.00000
                  --------  --------  --------  --------  --------  --------
  0C   1s        -0.000080 -0.000042 -0.000029 -0.000043  0.000049 -0.043383
  0C   2s         0.000091  0.000060  0.000038  0.000029 -0.000023  0.020523
  0C   3s         0.000393  0.000034  0.000059  0.000306 -0.000430  0.535933
  0C   1pz        0.067166 -0.233680 -0.105011 -0.127832  0.223361 -0.000354
  0C   1px        0.186587  0.061428  0.027617  0.033642 -0.058666 -0.046952
  0C   1py        0.112253  0.036789  0.016507  0.020158 -0.035172  0.075405
  0C   2pz        0.045424 -0.284220 -0.127719 -0.284226  0.496676 -0.001231
  0C   2px        0.126763  0.074651  0.033582  0.074828 -0.130381 -0.170195
  0C   2py        0.074027  0.044819  0.020146  0.044993 -0.078215  0.273470
  1C   1s        -0.003915  0.000028 -0.000004  0.000034  0.000017 -0.043496
  1C   2s         0.004695 -0.000042 -0.000002 -0.000059  0.000003  0.020608
  1C   3s         0.017531  0.000010  0.000092 -0.000005 -0.000153  0.536592
  1C   1pz       -0.058657 -0.207743  0.149932 -0.129552 -0.222396  0.022294
  1C   1px       -0.173663  0.054648 -0.039467  0.034095  0.058436  0.038960
  1C   1py       -0.085441  0.032680 -0.023545  0.020420  0.034961  0.076749
  1C   2pz       -0.061947 -0.252691  0.182375 -0.288047 -0.494508  0.080858
  1C   2px       -0.156517  0.066388 -0.047994  0.075880  0.130030  0.141350
  1C   2py       -0.135115  0.039675 -0.028708  0.045098  0.077657  0.278278
  2C   1s         0.003997 -0.000008 -0.000043 -0.000058 -0.000030 -0.043445
  2C   2s        -0.004785  0.000021  0.000054  0.000040  0.000060  0.020568
  2C   3s        -0.017945 -0.000107  0.000088  0.000383 -0.000007  0.536226
  2C   1pz        0.059109  0.025866  0.254908  0.257394 -0.000943  0.022613
  2C   1px        0.156582 -0.006789 -0.066906 -0.067539  0.000183  0.085917
  2C   1py        0.111401 -0.004070 -0.040246 -0.040571  0.000096  0.001157
  2C   2pz        0.063427  0.031478  0.310085  0.572306 -0.002047  0.082010
  2C   2px        0.194124 -0.008169 -0.081321 -0.149994  0.000637  0.311519
  2C   2py        0.076352 -0.004924 -0.048906 -0.090406  0.000165  0.004395
  3C   1s        -0.000092  0.000047  0.000032 -0.000034  0.000064 -0.043394
  3C   2s         0.000120 -0.000064 -0.000044  0.000008 -0.000047  0.020541
  3C   3s         0.000361 -0.000066 -0.000040  0.000370 -0.000391  0.535886
  3C   1pz       -0.066351  0.233698  0.104963 -0.127864  0.223352  0.000565
  3C   1px       -0.186712 -0.061437 -0.027582  0.033565 -0.058717  0.046843
  3C   1py       -0.112536 -0.036802 -0.016517  0.020059 -0.035146 -0.075430
  3C   2pz       -0.044603  0.284235  0.127698 -0.284269  0.496662  0.002127
  3C   2px       -0.126861 -0.074756 -0.033565  0.074530 -0.130774  0.170068
  3C   2py       -0.074356 -0.044669 -0.020013  0.044552 -0.078044 -0.273526
  4C   1s        -0.003870 -0.000013 -0.000006  0.000018 -0.000004 -0.043490
  4C   2s         0.004654  0.000026  0.000013 -0.000037  0.000028  0.020591
  4C   3s         0.017384 -0.000061 -0.000049 -0.000021 -0.000153  0.536774
  4C   1pz        0.059340  0.207839 -0.149841 -0.129501 -0.222410 -0.022314
  4C   1px        0.173444 -0.054487  0.039317  0.033960  0.058398 -0.039040
  4C   1py        0.085264 -0.032676  0.023577  0.020325  0.034994 -0.076784
  4C   2pz        0.062675  0.252739 -0.182273 -0.287908 -0.494641 -0.080890
  4C   2px        0.156295 -0.066347  0.047811  0.075401  0.129690 -0.141441
  4C   2py        0.134981 -0.039795  0.028618  0.045341  0.077774 -0.278368
  5C   1s         0.003961  0.000007  0.000031 -0.000041 -0.000019 -0.043484
  5C   2s        -0.004760 -0.000017 -0.000042  0.000018  0.000036  0.020588
  5C   3s        -0.017805  0.000087 -0.000040  0.000389  0.000053  0.536638
  5C   1pz       -0.058283 -0.025990 -0.254878  0.257344 -0.000990 -0.022890
  5C   1px       -0.156812  0.006806  0.066977 -0.067653  0.000299 -0.086014
  5C   1py       -0.111488  0.004062  0.040048 -0.040459  0.000202 -0.001160
  5C   2pz       -0.062656 -0.031580 -0.309987  0.572218 -0.002239 -0.083007
  5C   2px       -0.194395  0.008353  0.081518 -0.150462  0.000599 -0.311755
  5C   2py       -0.076436  0.004981  0.048731 -0.089802  0.000469 -0.004333
  6H   1s        -0.002775 -0.000011 -0.000022 -0.000065  0.000078 -0.040380
  6H   2s        -0.002249 -0.000021 -0.000041 -0.000285  0.000261 -0.735478
  7H   1s        -0.130432  0.000004 -0.000006  0.000008  0.000052 -0.040378
  7H   2s        -0.105481  0.000030  0.000014  0.000067  0.000181 -0.735937
  8H   1s         0.133103  0.000010  0.000003 -0.000104  0.000000 -0.040363
  8H   2s         0.107597 -0.000009  0.000002 -0.000408 -0.000074 -0.735547
  9H   1s        -0.002637  0.000022 -0.000016 -0.000082  0.000088 -0.040372
  9H   2s        -0.002130  0.000035 -0.000006 -0.000288  0.000346 -0.735400
 10H   1s        -0.130426 -0.000021  0.000009 -0.000017  0.000005 -0.040398
 10H   2s        -0.105463 -0.000052 -0.000010 -0.000056 -0.000014 -0.736223
 11H   1s         0.133154  0.000022  0.000004 -0.000068 -0.000007 -0.040422
 11H   2s         0.107683  0.000050  0.000009 -0.000255 -0.000045 -0.736299
                     24        25        26        27        28        29   
                   0.32236   0.32244   0.36666   0.36701   0.36704   0.36987
                   0.00000   0.00000   0.00000   0.00000   0.00000   0.00000
                  --------  --------  --------  --------  --------  --------
  0C   1s         0.007929 -0.040340  0.001072  0.052144  0.084379  0.060832
  0C   2s        -0.000215  0.001098 -0.000423 -0.019609 -0.031485 -0.066446
  0C   3s        -0.155432  0.791068 -0.016251 -0.774719 -1.257514 -0.215885
  0C   1pz       -0.007924 -0.002720 -0.201837  0.011309 -0.004077  0.000094
  0C   1px       -0.003088 -0.101738  0.051680  0.069883  0.011359  0.025104
  0C   1py       -0.044571  0.154066  0.029572 -0.011352 -0.081944 -0.040630
  0C   2pz        0.016282 -0.000512 -0.600784  0.085741 -0.042797  0.004603
  0C   2px        0.111386 -0.335094  0.149129  0.431841  0.075894  0.518327
  0C   2py       -0.080817  0.558587  0.081276 -0.075973 -0.507699 -0.835883
  1C   1s         0.039032 -0.013440 -0.003474  0.046722 -0.087065 -0.061164
  1C   2s        -0.001187  0.000454  0.001278 -0.017208  0.032467  0.066582
  1C   3s        -0.762953  0.262101  0.051779 -0.699599  1.297203  0.220262
  1C   1pz       -0.046002  0.011574  0.202037 -0.014136  0.009506  0.011997
  1C   1px       -0.086026  0.003830 -0.050990 -0.067982  0.009469  0.021270
  1C   1py       -0.149308  0.065397 -0.029282 -0.009815  0.082696  0.041148
  1C   2pz       -0.154959  0.062551  0.601919 -0.102618  0.077127  0.247313
  1C   2px       -0.260716  0.139833 -0.145756 -0.417770  0.054445  0.433435
  1C   2py       -0.551246  0.160800 -0.078746 -0.055603  0.512404  0.848589
  2C   1s         0.030989  0.027153  0.002378 -0.098617  0.002863  0.061589
  2C   2s        -0.000858 -0.000850 -0.000880  0.036495 -0.001157 -0.066722
  2C   3s        -0.607176 -0.530615 -0.035078  1.473928 -0.041335 -0.227018
  2C   1pz       -0.038944 -0.028877 -0.201937  0.017479 -0.004241 -0.012237
  2C   1px       -0.136148 -0.120597  0.050995  0.086710 -0.000645 -0.046715
  2C   1py       -0.020123  0.019195  0.029882  0.000190 -0.063847 -0.000560
  2C   2pz       -0.122907 -0.118158 -0.601372  0.123503 -0.044207 -0.252340
  2C   2px       -0.485481 -0.420249  0.144869  0.531932 -0.000303 -0.954068
  2C   2py        0.028898 -0.047418  0.083362 -0.001265 -0.394436 -0.012455
  3C   1s        -0.007848  0.040401  0.001032  0.051604  0.084141 -0.061573
  3C   2s         0.000185 -0.001125 -0.000363 -0.019026 -0.031241  0.066714
  3C   3s         0.154277 -0.791869 -0.015043 -0.772784 -1.256348  0.227060
  3C   1pz       -0.007791 -0.002303  0.201834 -0.011446  0.003814  0.000442
  3C   1px       -0.003212 -0.101859 -0.051475 -0.069672 -0.011294  0.025733
  3C   1py       -0.044582  0.154074 -0.029915  0.010979  0.081711 -0.041006
  3C   2pz        0.016596  0.000064  0.600627 -0.086379  0.041566  0.005562
  3C   2px        0.111021 -0.335437 -0.148751 -0.427610 -0.074187  0.522674
  3C   2py       -0.080635  0.558761 -0.082831  0.068311  0.504457 -0.838077
  4C   1s        -0.038978  0.013392 -0.003459  0.047303 -0.086832  0.061063
  4C   2s         0.001158 -0.000428  0.001314 -0.017795  0.032235 -0.066551
  4C   3s         0.762274 -0.261592  0.051336 -0.702557  1.296131 -0.218475
  4C   1pz       -0.046085  0.011073 -0.202084  0.014361 -0.009507  0.011943
  4C   1px       -0.085896  0.004048  0.051102  0.068214 -0.009441  0.020744
  4C   1py       -0.149224  0.065540  0.029139  0.010269 -0.082559  0.041367
  4C   2pz       -0.155056  0.061554 -0.602323  0.105491 -0.076367  0.246574
  4C   2px       -0.260113  0.140182  0.145312  0.421427 -0.053312  0.430332
  4C   2py       -0.551020  0.161198  0.078562  0.063539 -0.509470  0.849981
  5C   1s        -0.031044 -0.027115  0.002454 -0.099109  0.002674 -0.060710
  5C   2s         0.000879  0.000829 -0.000927  0.037089 -0.000919  0.066409
  5C   3s         0.607700  0.530038 -0.036797  1.474554 -0.041182  0.213286
  5C   1pz       -0.038917 -0.028453  0.202051 -0.017760  0.004263 -0.012254
  5C   1px       -0.136176 -0.120784 -0.050679 -0.086994  0.000514 -0.045917
  5C   1py       -0.020121  0.019141 -0.030049 -0.000215  0.063830 -0.000783
  5C   2pz       -0.123023 -0.117400  0.601959 -0.126527  0.043756 -0.251628
  5C   2px       -0.485512 -0.420567 -0.143553 -0.539671 -0.002998 -0.949178
  5C   2py        0.028891 -0.047259 -0.083547  0.000925  0.394166 -0.014195
  6H   1s         0.003715 -0.019006 -0.000203 -0.005253 -0.008659  0.022613
  6H   2s         0.230210 -1.174113  0.014248  0.637532  1.030537  1.084833
  7H   1s         0.018398 -0.006320  0.000316 -0.004912  0.008879 -0.022668
  7H   2s         1.133062 -0.388784 -0.042124  0.568157 -1.062089 -1.087269
  8H   1s         0.014622  0.012767 -0.000131  0.010263 -0.000251  0.022584
  8H   2s         0.901739  0.787574  0.028113 -1.201230  0.035573  1.092921
  9H   1s        -0.003720  0.019005  0.000008 -0.005455 -0.008735 -0.022535
  9H   2s        -0.229294  1.174852  0.011476  0.627953  1.026259 -1.093913
 10H   1s        -0.018390  0.006341  0.000329 -0.004720  0.008962  0.022665
 10H   2s        -1.132185  0.388926 -0.042512  0.578659 -1.058379  1.086151
 11H   1s        -0.014624 -0.012793 -0.000321  0.010019 -0.000343 -0.022684
 11H   2s        -0.901815 -0.787325  0.030872 -1.209539  0.032148 -1.081774
                     30        31        32        33        34        35   
                   0.50098   0.50108   0.51530   0.51536   0.79844   0.81337
                   0.00000   0.00000   0.00000   0.00000   0.00000   0.00000
                  --------  --------  --------  --------  --------  --------
  0C   1s         0.012267  0.088774 -0.063532  0.000257  0.000300 -0.122771
  0C   2s        -0.002245 -0.016077 -0.004395  0.000102 -0.000082  0.029721
  0C   3s        -0.238212 -1.729557  1.740363 -0.009593 -0.005890  2.701132
  0C   1pz        0.002402 -0.001646 -0.000539 -0.063237 -0.063311  0.000351
  0C   1px       -0.007469 -0.105633  0.003722 -0.174929 -0.175642  0.082361
  0C   1py        0.027720  0.166145 -0.009841 -0.109904 -0.108998 -0.133030
  0C   2pz        0.232434 -0.042702 -0.004110 -0.546545 -0.819936  0.009418
  0C   2px        0.537187 -0.883681  0.098343 -1.512152 -2.274395  1.134725
  0C   2py        0.579901  1.207228 -0.194538 -0.948326 -1.412279 -1.840807
  1C   1s         0.070649 -0.055330 -0.032450 -0.054493 -0.000338  0.122762
  1C   2s        -0.012831  0.009947 -0.002202 -0.003815  0.000076 -0.029785
  1C   3s        -1.375649  1.079721  0.887482  1.493721  0.007599 -2.699962
  1C   1pz        0.038572 -0.031820  0.026686 -0.018732 -0.032818  0.039036
  1C   1px        0.064298 -0.060013  0.158119 -0.098515 -0.186549  0.067998
  1C   1py        0.137855 -0.101813 -0.094465  0.045817  0.103963  0.135374
  1C   2pz        0.223946 -0.329172  0.214424 -0.189094 -0.424328  0.542177
  1C   2px        0.095901 -0.957624  1.338453 -0.897077 -2.417413  0.942026
  1C   2py        1.262571 -0.491043 -0.872337  0.299280  1.345546  1.868769
  2C   1s        -0.083036 -0.033888  0.031340 -0.055193  0.000357 -0.122745
  2C   2s         0.015042  0.006071  0.002114 -0.003850 -0.000092  0.029749
  2C   3s         1.616891  0.661560 -0.857177  1.512335 -0.007273  2.698973
  2C   1pz       -0.046698 -0.020372 -0.025404 -0.017285  0.030997 -0.039701
  2C   1px       -0.178244 -0.071761  0.014854 -0.002938 -0.010728 -0.151332
  2C   1py        0.000472 -0.009554 -0.186024 -0.105052  0.213721 -0.001647
  2C   2pz       -0.314729 -0.251824 -0.203494 -0.177891  0.400040 -0.552848
  2C   2px       -1.364376 -0.508900  0.188432 -0.133128 -0.138691 -2.089380
  2C   2py        0.277526 -0.748914 -1.606668 -0.905787  2.766605 -0.021403
  3C   1s         0.012473  0.088764  0.063505 -0.001022 -0.000337  0.122766
  3C   2s        -0.002275 -0.016071  0.004401  0.000021  0.000109 -0.029719
  3C   3s        -0.243053 -1.729388 -1.739819  0.025921  0.005291 -2.701105
  3C   1pz       -0.002457  0.001070 -0.000647 -0.063311  0.063289  0.001282
  3C   1px        0.007375  0.104185  0.003554 -0.175700  0.175134  0.082897
  3C   1py       -0.027796 -0.167043 -0.009869 -0.108611  0.109795 -0.132664
  3C   2pz       -0.232853  0.037638 -0.004807 -0.546939  0.819872  0.012612
  3C   2px       -0.537630  0.872318  0.099840 -1.519203  2.268438  1.149294
  3C   2py       -0.580428 -1.214397 -0.192972 -0.937960  1.421704 -1.831714
  4C   1s         0.070734 -0.054888  0.032255  0.054920  0.000353 -0.122770
  4C   2s        -0.012824  0.009965  0.002235  0.003751 -0.000090  0.029761
  4C   3s        -1.378403  1.068608 -0.883217 -1.503012 -0.006881  2.701705
  4C   1pz       -0.038462  0.031561  0.026761 -0.018834  0.032279  0.039360
  4C   1px       -0.063909  0.059179  0.158218 -0.098958  0.186223  0.068985
  4C   1py       -0.138031  0.102232 -0.094105  0.045061 -0.104701  0.134723
  4C   2pz       -0.223056  0.327136  0.214876 -0.190806  0.419830  0.543929
  4C   2px       -0.092695  0.951026  1.338351 -0.905578  2.414195  0.956880
  4C   2py       -1.264339  0.493600 -0.868651  0.296097 -1.356594  1.861668
  5C   1s        -0.083078 -0.033440 -0.031124  0.055533 -0.000325  0.122760
  5C   2s         0.015038  0.006092 -0.002149  0.003802  0.000084 -0.029740
  5C   3s         1.618949  0.650138  0.852462 -1.519725  0.007114 -2.700925
  5C   1pz        0.046648  0.020202 -0.025484 -0.017488 -0.030445 -0.040377
  5C   1px        0.178181  0.071781  0.014416 -0.003528  0.011550 -0.151051
  5C   1py       -0.001024  0.008650 -0.185960 -0.105070 -0.213817 -0.002825
  5C   2pz        0.313831  0.250212 -0.204175 -0.179488 -0.395489 -0.554460
  5C   2px        1.364189  0.508138  0.184624 -0.137757  0.149989 -2.089563
  5C   2py       -0.281898  0.742194 -1.605393 -0.912318 -2.768598 -0.037901
  6H   1s        -0.000320 -0.003986  0.125501 -0.001277  0.000413 -0.145906
  6H   2s        -0.120340 -0.858932 -0.167262  0.005311 -0.002282  0.865082
  7H   1s        -0.003076  0.002889  0.063874  0.108006 -0.000351  0.145949
  7H   2s        -0.683791  0.531950 -0.084651 -0.146407  0.002414 -0.864821
  8H   1s         0.003693  0.001883 -0.061696  0.109246  0.000574 -0.145998
  8H   2s         0.803454  0.325334  0.081542 -0.146910 -0.002630  0.864684
  9H   1s        -0.000726 -0.003962 -0.125501  0.001290 -0.000400  0.145870
  9H   2s        -0.119228 -0.859040  0.167594  0.001498  0.002419 -0.865066
 10H   1s        -0.003313  0.002066 -0.063824 -0.108051  0.000438 -0.145875
 10H   2s        -0.683230  0.533184  0.086365  0.142664 -0.002471  0.864962
 11H   1s         0.003870  0.001014  0.061675 -0.109268 -0.000134  0.145950
 11H   2s         0.802467  0.326658 -0.083755  0.144328  0.002156 -0.864673
                     36        37        38        39        40        41   
                   0.88207   0.90279   0.95733   0.99963   0.99973   1.05382
                   0.00000   0.00000   0.00000   0.00000   0.00000   0.00000
                  --------  --------  --------  --------  --------  --------
  0C   1s        -0.000019  0.008446  0.000056 -0.020698  0.064824 -0.000009
  0C   2s         0.000232 -0.051299 -0.000103  0.005848 -0.017781 -0.000215
  0C   3s         0.000454 -0.106282 -0.000116 -0.039219  0.126679  0.000330
  0C   1pz       -0.115735 -0.001634  0.420651 -0.153428 -0.050350 -0.521743
  0C   1px       -0.320399 -0.143408 -0.110511 -0.397832 -0.225963  0.137082
  0C   1py       -0.200408  0.229692 -0.066094 -0.311944  0.058933  0.082757
  0C   2pz        0.139442  0.001895 -0.264076  0.142568  0.045880  0.430708
  0C   2px        0.386217  0.159282  0.069296  0.384036  0.163495 -0.113025
  0C   2py        0.241175 -0.253891  0.041491  0.265280  0.018457 -0.068792
  1C   1s        -0.000014  0.008384 -0.000023 -0.045741 -0.050353 -0.000037
  1C   2s         0.000083 -0.051290  0.000043  0.012758  0.013885  0.000074
  1C   3s        -0.000201 -0.105844  0.000089 -0.090079 -0.098692 -0.000645
  1C   1pz        0.059489  0.068063  0.420536  0.031582 -0.089476 -0.530250
  1C   1px        0.340488  0.119256 -0.110869  0.299419 -0.378729  0.139761
  1C   1py       -0.191045  0.233154 -0.066057 -0.300417  0.065706  0.082735
  1C   2pz       -0.071689 -0.074992 -0.263969 -0.044500  0.065957  0.437888
  1C   2px       -0.410844 -0.131029  0.069645 -0.303558  0.321248 -0.115423
  1C   2py        0.230643 -0.257567  0.041454  0.225693 -0.118526 -0.067704
  2C   1s        -0.000059  0.008420 -0.000049  0.066443 -0.014539  0.000085
  2C   2s         0.000134 -0.051289  0.000058 -0.018475  0.003911  0.000108
  2C   3s         0.000834 -0.106273  0.000113  0.130673 -0.028336  0.000790
  2C   1pz        0.056002  0.069488  0.420567  0.028190 -0.086670 -0.008403
  2C   1px       -0.021085  0.261582 -0.110463  0.174346 -0.008834  0.002543
  2C   1py        0.390285  0.004215 -0.066507 -0.113460 -0.533774  0.001039
  2C   2pz       -0.067642 -0.076702 -0.263960 -0.003505  0.075478  0.006862
  2C   2px        0.024725 -0.288763  0.069296 -0.076419 -0.010570 -0.002697
  2C   2py       -0.470653 -0.005742  0.041736  0.105369  0.495337 -0.000722
  3C   1s         0.000056  0.008453  0.000061 -0.020681  0.064836  0.000014
  3C   2s         0.000252 -0.051276 -0.000102  0.005483 -0.017929  0.000212
  3C   3s        -0.000276 -0.106704 -0.000144 -0.041813  0.125896 -0.000325
  3C   1pz       -0.115712  0.001047  0.420583  0.153750  0.049594  0.522028
  3C   1px       -0.320852  0.142392 -0.110596  0.397895  0.225498 -0.137176
  3C   1py       -0.199626 -0.230298 -0.066340  0.312052 -0.059256 -0.081535
  3C   2pz        0.139478 -0.001464 -0.264014 -0.142748 -0.045398 -0.431083
  3C   2px        0.387126 -0.157872  0.069456 -0.383381 -0.162085  0.113421
  3C   2py        0.239996  0.254286  0.041624 -0.266881 -0.018140  0.066951
  4C   1s        -0.000043  0.008363 -0.000007 -0.045840 -0.050338  0.000048
  4C   2s         0.000301 -0.051401  0.000044  0.012520  0.014097 -0.000102
  4C   3s         0.000525 -0.105456  0.000001 -0.088611 -0.097584  0.000529
  4C   1pz        0.059657 -0.067782  0.420793 -0.031230  0.088799  0.530303
  4C   1px        0.341317 -0.117871 -0.110157 -0.299954  0.377948 -0.138765
  4C   1py       -0.190079 -0.233951 -0.066293  0.300469 -0.065076 -0.083971
  4C   2pz       -0.071893  0.074712 -0.264176  0.044571 -0.065165 -0.437860
  4C   2px       -0.411443  0.129604  0.069107  0.305347 -0.319640  0.114521
  4C   2py        0.229723  0.258828  0.041652 -0.224719  0.118147  0.069807
  5C   1s         0.000010  0.008404 -0.000039  0.066513 -0.014451 -0.000083
  5C   2s         0.000260 -0.051435  0.000059 -0.018404  0.004239 -0.000099
  5C   3s        -0.000498 -0.106432  0.000056  0.129191 -0.028209 -0.000728
  5C   1pz        0.056132 -0.069084  0.420762 -0.027682  0.085887  0.008229
  5C   1px       -0.019951 -0.261672 -0.110532 -0.174379  0.008996 -0.001930
  5C   1py        0.390615 -0.002654 -0.065980  0.114215  0.533268 -0.001579
  5C   2pz       -0.067852  0.076341 -0.264110  0.002781 -0.074835 -0.006806
  5C   2px        0.023739  0.288117  0.069432  0.074657  0.010185  0.001169
  5C   2py       -0.471070  0.003865  0.041381 -0.106966 -0.494665  0.001416
  6H   1s        -0.000439  0.334736  0.000212 -0.090704  0.284976 -0.000244
  6H   2s         0.000124 -0.093173 -0.000006  0.037438 -0.117018  0.000258
  7H   1s        -0.000658  0.334679 -0.000097 -0.201121 -0.221802 -0.000134
  7H   2s         0.000204 -0.094020 -0.000009  0.082797  0.091272 -0.000095
  8H   1s        -0.000813  0.334736 -0.000225  0.292269 -0.064206  0.000595
  8H   2s         0.000629 -0.093827  0.000011 -0.120035  0.026275 -0.000062
  9H   1s        -0.000385  0.334784  0.000248 -0.091193  0.284801  0.000297
  9H   2s        -0.000344 -0.093352 -0.000004  0.037150 -0.117095 -0.000228
 10H   1s        -0.000631  0.334527  0.000012 -0.201560 -0.221344  0.000215
 10H   2s         0.000330 -0.093807 -0.000005  0.083471  0.091285  0.000015
 11H   1s        -0.000390  0.334530 -0.000152  0.292516 -0.063459 -0.000558
 11H   2s        -0.000218 -0.094207  0.000015 -0.120959  0.025924  0.000145
                     42        43        44        45        46        47   
                   1.05384   1.07897   1.07905   1.10529   1.10529   1.13609
                   0.00000   0.00000   0.00000   0.00000   0.00000   0.00000
                  --------  --------  --------  --------  --------  --------
  0C   1s        -0.000015 -0.024255  0.030991 -0.000015 -0.000029 -0.000553
  0C   2s         0.000180 -0.111378  0.142871 -0.000245  0.000720 -0.347376
  0C   3s        -0.000346 -0.041519  0.052263 -0.000328 -0.000246  0.160589
  0C   1pz        0.311187 -0.126033 -0.099607  0.126357 -0.605367 -0.002579
  0C   1px       -0.081111 -0.360509 -0.261240 -0.033466  0.159123 -0.144557
  0C   1py       -0.049020 -0.204106 -0.189794 -0.019913  0.094912  0.232841
  0C   2pz       -0.257089  0.127104  0.101106 -0.165499  0.792331  0.002425
  0C   2px        0.066692  0.336258  0.300026  0.043150 -0.208046  0.076827
  0C   2py        0.040614  0.251288  0.134419  0.026052 -0.124733 -0.124755
  1C   1s         0.000097 -0.038937 -0.005412 -0.000002 -0.000019 -0.000535
  1C   2s         0.000116 -0.179238 -0.024996 -0.000249  0.000636 -0.347348
  1C   3s         0.000716 -0.066579 -0.008985  0.000601 -0.000342  0.160492
  1C   1pz       -0.296617  0.018062 -0.081092  0.461246  0.411825  0.069377
  1C   1px        0.078105  0.078804 -0.467072 -0.120999 -0.108608  0.120366
  1C   1py        0.046856 -0.011973  0.265896 -0.072148 -0.065220  0.236880
  1C   2pz        0.244880  0.002917  0.084610 -0.603880 -0.539147 -0.037850
  1C   2px       -0.064736 -0.042646  0.477399  0.157751  0.142036 -0.064893
  1C   2py       -0.039050  0.084802 -0.258811  0.094329  0.085162 -0.127559
  2C   1s        -0.000003 -0.014699 -0.036436  0.000020 -0.000035 -0.000526
  2C   2s         0.000123 -0.067860 -0.167796 -0.000228  0.000660 -0.347380
  2C   3s        -0.000382 -0.025685 -0.062786 -0.000408 -0.000770  0.159982
  2C   1pz       -0.607569 -0.069969  0.035373 -0.587517  0.192892  0.070883
  2C   1px        0.158939  0.036942  0.015446  0.154146 -0.051287  0.264980
  2C   1py        0.096297 -0.502482  0.204586  0.092596 -0.030389  0.003818
  2C   2pz        0.501723  0.078893 -0.015233  0.769185 -0.252497 -0.038556
  2C   2px       -0.130793 -0.005673  0.061544 -0.201225  0.067134 -0.141618
  2C   2py       -0.079781  0.508598 -0.205727 -0.120696  0.039905 -0.001677
  3C   1s         0.000015  0.024123 -0.031096  0.000019 -0.000028 -0.000552
  3C   2s        -0.000164  0.111487 -0.142751 -0.000201  0.000698 -0.347432
  3C   3s         0.000434  0.041771 -0.052162  0.000432  0.000094  0.160915
  3C   1pz       -0.310728 -0.127320 -0.097553  0.126371 -0.605372  0.000201
  3C   1px        0.082382 -0.359936 -0.262435 -0.032891  0.158819  0.144833
  3C   1py        0.048744 -0.203591 -0.190399 -0.020007  0.095370 -0.232807
  3C   2pz        0.256435  0.128356  0.098767 -0.165296  0.792345  0.001117
  3C   2px       -0.068460  0.335543  0.300355  0.043439 -0.208202 -0.077562
  3C   2py       -0.039947  0.251327  0.135102  0.026634 -0.124097  0.124798
  4C   1s        -0.000090  0.038971  0.005535  0.000008 -0.000001 -0.000538
  4C   2s        -0.000129  0.179336  0.025058 -0.000185  0.000704 -0.347316
  4C   3s        -0.000762  0.066079  0.009183  0.000086 -0.000577  0.160190
  4C   1pz        0.296452  0.018857 -0.080799  0.460937  0.412384 -0.068384
  4C   1px       -0.077658  0.077626 -0.467483 -0.120922 -0.107983 -0.120516
  4C   1py       -0.046398 -0.011663  0.265616 -0.072828 -0.064220 -0.237004
  4C   2pz       -0.244855  0.001953  0.084805 -0.603239 -0.539678  0.036401
  4C   2px        0.063856 -0.041740  0.477037  0.158708  0.141383  0.065124
  4C   2py        0.037942  0.084355 -0.257962  0.095105  0.084085  0.127578
  5C   1s         0.000012  0.014812  0.036427  0.000016 -0.000005 -0.000520
  5C   2s        -0.000144  0.067878  0.167867 -0.000280  0.000708 -0.347302
  5C   3s         0.000298  0.025687  0.062395  0.000139 -0.000269  0.160114
  5C   1pz        0.607370 -0.068950  0.036564 -0.587390  0.193493 -0.069628
  5C   1px       -0.160082  0.036488  0.015353  0.154247 -0.050278 -0.265526
  5C   1py       -0.094942 -0.503097  0.203344  0.092055 -0.030551 -0.003852
  5C   2pz       -0.501472  0.078185 -0.016742  0.768710 -0.253150  0.036753
  5C   2px        0.132527 -0.005524  0.060866 -0.202035  0.066117  0.143087
  5C   2py        0.078174  0.508800 -0.203970 -0.120961  0.039873  0.001842
  6H   1s         0.000098 -0.269787  0.345451 -0.000333  0.000571 -0.341856
  6H   2s        -0.000072  0.101030 -0.129470  0.000156 -0.000308  0.235130
  7H   1s         0.000665 -0.434255 -0.060472 -0.000114  0.000453 -0.342391
  7H   2s        -0.000179  0.163833  0.022944  0.000388 -0.000445  0.236503
  8H   1s         0.000143 -0.164178 -0.406338 -0.000155  0.000334 -0.342213
  8H   2s        -0.000167  0.061509  0.152594 -0.000078 -0.000487  0.235643
  9H   1s        -0.000074  0.269419 -0.345727 -0.000025  0.000584 -0.341958
  9H   2s         0.000174 -0.100707  0.129796  0.000203 -0.000215  0.235340
 10H   1s        -0.000609  0.434439  0.061276 -0.000038  0.000605 -0.342192
 10H   2s         0.000160 -0.163942 -0.023009  0.000194 -0.000601  0.236325
 11H   1s        -0.000079  0.164949  0.406510 -0.000183  0.000594 -0.342077
 11H   2s         0.000114 -0.061968 -0.153368  0.000098 -0.000490  0.236210
                     48        49        50        51        52        53   
                   1.17512   1.27766   1.30974   1.30997   1.40686   1.41024
                   0.00000   0.00000   0.00000   0.00000   0.00000   0.00000
                  --------  --------  --------  --------  --------  --------
  0C   1s         0.000071 -0.014284  0.000486  0.027767  0.000173 -0.001949
  0C   2s         0.000045 -0.010401 -0.001252 -0.065587 -0.000897  0.012649
  0C   3s         0.001017  1.465694 -0.005742 -0.385667 -0.000566  0.014111
  0C   1pz        0.438408 -0.002079 -0.011445  0.003133  0.153509  0.089849
  0C   1px       -0.115238 -0.263374 -0.026340  0.327739  0.426770  0.229271
  0C   1py       -0.069189  0.423210 -0.029151 -0.526234  0.262806  0.187732
  0C   2pz       -0.882561  0.010447  0.048840 -0.008582 -0.837688 -0.275514
  0C   2px        0.232206  1.080766  0.121658 -0.832612 -2.322941 -0.733208
  0C   2py        0.139188 -1.737343  0.107596  1.334810 -1.443985 -0.525909
  1C   1s         0.000036  0.014314  0.023840 -0.014330  0.000044 -0.023796
  1C   2s        -0.000041  0.009876 -0.056826  0.034475 -0.000245  0.155082
  1C   3s         0.000262 -1.465736 -0.332371  0.197871 -0.000429  0.164776
  1C   1pz       -0.438502 -0.124893 -0.130406  0.085336  0.079171  0.135688
  1C   1px        0.114437 -0.218626 -0.216190  0.168995  0.452705  0.317173
  1C   1py        0.069333 -0.430284 -0.468577  0.259781 -0.254305  0.332974
  1C   2pz        0.882820  0.513360  0.326009 -0.225377 -0.432395 -0.239094
  1C   2px       -0.230472  0.897241  0.518659 -0.478836 -2.470177 -0.662396
  1C   2py       -0.139407  1.764882  1.207235 -0.630852  1.383726 -0.413037
  2C   1s        -0.000058 -0.014290 -0.024329 -0.013482 -0.000110 -0.021889
  2C   2s        -0.000040 -0.010224  0.057551  0.032274  0.000661  0.142368
  2C   3s        -0.000783  1.465417  0.339611  0.187882  0.001276  0.151643
  2C   1pz        0.438554  0.126927  0.136057  0.081746 -0.074178  0.133068
  2C   1px       -0.115017  0.481417  0.525834  0.288741  0.029405  0.400308
  2C   1py       -0.068368  0.006536 -0.011249  0.038056 -0.518657  0.178093
  2C   2pz       -0.882780 -0.522826 -0.341226 -0.216506  0.406778 -0.242899
  2C   2px        0.231608 -1.975587 -1.337589 -0.730790 -0.151632 -0.601582
  2C   2py        0.137880 -0.027468  0.061238 -0.155456  2.829594 -0.539412
  3C   1s        -0.000079  0.014253  0.000561  0.027803 -0.000180  0.001993
  3C   2s        -0.000031  0.010286 -0.001372 -0.065679  0.000750 -0.012880
  3C   3s        -0.001025 -1.464867 -0.008451 -0.388065  0.000433 -0.013742
  3C   1pz       -0.438568 -0.003129  0.011353 -0.003584 -0.153195  0.090074
  3C   1px        0.115028 -0.262697  0.025324 -0.328359 -0.423061  0.230088
  3C   1py        0.068698  0.422577  0.029970  0.526877 -0.267007  0.188474
  3C   2pz        0.882900  0.010464 -0.048675  0.009034  0.836741 -0.277348
  3C   2px       -0.231526  1.078853 -0.118353  0.834764  2.316217 -0.738194
  3C   2py       -0.138415 -1.736098 -0.110863 -1.337559  1.449229 -0.529759
  4C   1s        -0.000012 -0.014303  0.023792 -0.014342 -0.000012  0.023812
  4C   2s        -0.000006 -0.010014 -0.056655  0.034646  0.000205 -0.155441
  4C   3s        -0.000236  1.466665 -0.329332  0.200386  0.000737 -0.164928
  4C   1pz        0.438414 -0.125113  0.130147 -0.085324 -0.078657  0.135998
  4C   1px       -0.115848 -0.218396  0.215374 -0.169609 -0.450672  0.318544
  4C   1py       -0.068578 -0.430842  0.467966 -0.260315  0.250952  0.332836
  4C   2pz       -0.882664  0.513017 -0.324962  0.225551  0.429345 -0.240122
  4C   2px        0.233068  0.896101 -0.515974  0.480889  2.462784 -0.668577
  4C   2py        0.138023  1.766745 -1.204290  0.633578 -1.375854 -0.411137
  5C   1s         0.000043  0.014321 -0.024314 -0.013447  0.000084  0.021842
  5C   2s         0.000071  0.009870  0.057868  0.032549 -0.000653 -0.142656
  5C   3s         0.000766 -1.466886  0.337069  0.185782 -0.001229 -0.150949
  5C   1pz       -0.438422  0.128081 -0.136498 -0.081673  0.074502  0.132966
  5C   1px        0.115293  0.482430 -0.525580 -0.288211 -0.024847  0.399740
  5C   1py        0.069506  0.006237  0.011274 -0.038082  0.516343  0.177111
  5C   2pz        0.882668 -0.524042  0.341286  0.215595 -0.405271 -0.241616
  5C   2px       -0.231872 -1.978488  1.334736  0.728054  0.144203 -0.600178
  5C   2py       -0.139789 -0.026181 -0.061244  0.155365 -2.822558 -0.533313
  6H   1s         0.000371 -0.170865  0.007848  0.443655  0.002914 -0.036065
  6H   2s        -0.000193  0.974050 -0.020732 -1.189995 -0.005415  0.070233
  7H   1s         0.000084  0.171102  0.380345 -0.228698  0.000739 -0.436342
  7H   2s        -0.000129 -0.974024 -1.021179  0.613692 -0.001726  0.852934
  8H   1s        -0.000261 -0.170840 -0.388259 -0.214732 -0.002116 -0.401036
  8H   2s         0.000174  0.972938  1.042334  0.577161  0.004310  0.784418
  9H   1s        -0.000363  0.170142  0.008387  0.443993 -0.002863  0.036305
  9H   2s         0.000230 -0.972476 -0.023276 -1.191787  0.005023 -0.070820
 10H   1s        -0.000111 -0.171383  0.379910 -0.228829 -0.000869  0.436650
 10H   2s         0.000020  0.974608 -1.019130  0.615138  0.001539 -0.854049
 11H   1s         0.000279  0.171528 -0.388509 -0.214589  0.002073  0.400557
 11H   2s        -0.000101 -0.974919  1.041685  0.575916 -0.003820 -0.783256
                     54        55        56        57        58        59   
                   1.41049   1.55522   1.55529   1.59558   1.71327   1.72680
                   0.00000   0.00000   0.00000   0.00000   0.00000   0.00000
                  --------  --------  --------  --------  --------  --------
  0C   1s        -0.026425  0.002345 -0.003910 -0.017997  0.017793 -0.001663
  0C   2s         0.171757  0.156882 -0.260146  0.606149 -0.283270  0.445879
  0C   3s         0.184189 -1.288052  2.136172 -0.765133 -1.257106 -1.109029
  0C   1pz       -0.008322 -0.085457 -0.049243 -0.001023  0.000091 -0.018747
  0C   1px       -0.285963 -0.359323  0.066680 -0.124642  0.052975 -0.199443
  0C   1py        0.424251  0.055826 -0.422150  0.200670 -0.085991  0.212961
  0C   2pz        0.019736  0.559440  0.332796  0.001223 -0.011400  0.046131
  0C   2px        0.458930  1.849924  0.424483  0.178721 -1.249149  1.109034
  0C   2py       -0.641720  0.470584  1.395616 -0.288281  2.013689 -1.554540
  1C   1s        -0.011471  0.004567  0.000058 -0.017948 -0.017765  0.000568
  1C   2s         0.074893  0.303199  0.005951  0.605831  0.283211 -0.151151
  1C   3s         0.077489 -2.494827 -0.046383 -0.765625  1.251580  0.375844
  1C   1pz        0.014373  0.116299 -0.048461  0.059093  0.025585  0.021678
  1C   1px       -0.139642  0.207310 -0.286566  0.103555  0.045129  0.221363
  1C   1py        0.324120  0.393572  0.169982  0.203125  0.088356 -0.231176
  1C   2pz        0.040838 -0.286033  0.328837 -0.084139 -0.595839  0.063096
  1C   2px        0.572790 -0.526927  1.907750 -0.147631 -1.042313 -0.284163
  1C   2py       -0.696456 -0.941820 -1.092371 -0.289182 -2.046428  0.872038
  2C   1s         0.014873  0.002180  0.004022 -0.017974  0.017761  0.001121
  2C   2s        -0.096898  0.146829  0.265718  0.605909 -0.282911 -0.295872
  2C   3s        -0.100809 -1.203634 -2.185516 -0.764924 -1.253584  0.733779
  2C   1pz       -0.037901  0.014955  0.125903  0.060283 -0.025937 -0.013565
  2C   1px       -0.291362  0.230069  0.380677  0.228015 -0.098487 -0.196054
  2C   1py        0.245028 -0.288252  0.166420  0.003401 -0.002240  0.240765
  2C   2pz        0.003946  0.137946 -0.401709 -0.085996  0.607168  0.248455
  2C   2px        0.465749 -0.624920 -0.889726 -0.325789  2.291010  1.247947
  2C   2py       -0.751520  1.916003 -1.075915 -0.004886  0.035907 -0.504035
  3C   1s         0.026403 -0.002353  0.003907 -0.017988 -0.017788 -0.001674
  3C   2s        -0.171581 -0.156901  0.259952  0.606122  0.282774  0.446067
  3C   3s        -0.184181  1.286955 -2.136379 -0.766224  1.258182 -1.108487
  3C   1pz       -0.010255 -0.085721 -0.048691  0.001403  0.000888  0.019052
  3C   1px       -0.290842 -0.359210  0.066271  0.124866  0.053206  0.199473
  3C   1py        0.420879  0.055860 -0.422297 -0.200625 -0.085396 -0.213193
  3C   2pz        0.029256  0.560779  0.329886 -0.002188 -0.012042 -0.047610
  3C   2px        0.485625  1.850138  0.426139 -0.178833 -1.249785 -1.110617
  3C   2py       -0.624236  0.470475  1.395875  0.287260  2.010085  1.556466
  4C   1s         0.011468 -0.004564 -0.000045 -0.017953  0.017767  0.000588
  4C   2s        -0.074671 -0.303063 -0.006171  0.606155 -0.281896 -0.151168
  4C   3s        -0.077416  2.495343  0.046799 -0.765519 -1.255811  0.373872
  4C   1pz        0.013185  0.116397 -0.048582 -0.059144  0.025526 -0.021891
  4C   1px       -0.145091  0.207173 -0.286558 -0.103488  0.044631 -0.221345
  4C   1py        0.326680  0.393511  0.170099 -0.203139  0.087663  0.231432
  4C   2pz        0.046246 -0.286799  0.329676  0.084494 -0.594305 -0.062564
  4C   2px        0.601704 -0.526400  1.908126  0.147801 -1.040678  0.283058
  4C   2py       -0.711474 -0.941978 -1.093371  0.290162 -2.042262 -0.874629
  5C   1s        -0.014863 -0.002165 -0.004014 -0.017947 -0.017794  0.001121
  5C   2s         0.097018 -0.146691 -0.265492  0.606099  0.282482 -0.295127
  5C   3s         0.100221  1.203638  2.185177 -0.766167  1.256686  0.733784
  5C   1pz       -0.036953  0.015165  0.126402 -0.060385 -0.026209  0.013643
  5C   1px       -0.291011  0.230011  0.380466 -0.227496 -0.098287  0.196261
  5C   1py        0.251070 -0.288396  0.166471 -0.003341 -0.001359 -0.240824
  5C   2pz       -0.001063  0.137043 -0.403898  0.086047  0.606876 -0.248200
  5C   2px        0.465869 -0.624480 -0.888151  0.323905  2.289127 -1.246284
  5C   2py       -0.784282  1.916306 -1.076540  0.004423  0.034898  0.503455
  6H   1s        -0.483850  0.226172 -0.374845 -0.209051 -0.543597  0.608228
  6H   2s         0.947295  0.331695 -0.549252  0.594782 -0.688734  0.796970
  7H   1s        -0.210590  0.436308  0.008736 -0.209088  0.544953 -0.205397
  7H   2s         0.411011  0.639535  0.012699  0.592627  0.689566 -0.269238
  8H   1s         0.272895  0.211551  0.382347 -0.209225 -0.544129 -0.402824
  8H   2s        -0.533121  0.310222  0.560350  0.593583 -0.688877 -0.527949
  9H   1s         0.483610 -0.226344  0.374617 -0.209203  0.542726  0.608879
  9H   2s        -0.946668 -0.331632  0.548987  0.594662  0.687710  0.797745
 10H   1s         0.210368 -0.436483 -0.008813 -0.208807 -0.543376 -0.205963
 10H   2s        -0.410216 -0.639412 -0.012900  0.592928 -0.687332 -0.269897
 11H   1s        -0.272519 -0.211547 -0.382320 -0.209030  0.543295 -0.402454
 11H   2s         0.532011 -0.309774 -0.559523  0.592533  0.687611 -0.526963
                     60        61        62        63        64        65   
                   1.72701   1.80371   1.80386   2.16057   2.16069   2.74980
                   0.00000   0.00000   0.00000   0.00000   0.00000   0.00000
                  --------  --------  --------  --------  --------  --------
  0C   1s         0.000283  0.009570  0.005181 -0.004964  0.027931  0.086620
  0C   2s        -0.082999 -0.895788 -0.486688 -0.199256  1.124394  1.018980
  0C   3s         0.209285  1.102821  0.598578  0.563140 -3.175864 -6.784584
  0C   1pz       -0.093106  0.012209 -0.025341  0.064363  0.012670  0.000224
  0C   1px       -0.230419 -0.084319 -0.134467  0.157116  0.154960  0.045702
  0C   1py       -0.206702  0.218791  0.063701  0.146664 -0.178488 -0.073488
  0C   2pz        0.197956 -0.069998  0.135226  0.103800  0.007277 -0.022793
  0C   2px        0.366942  0.059614  0.512736  0.476947 -1.049643 -2.292308
  0C   2py        0.645388 -0.546369  0.002206 -0.137685  1.801712  3.689819
  1C   1s        -0.001590  0.009285 -0.005671  0.026681 -0.009670 -0.086613
  1C   2s         0.427511 -0.869841  0.532843  1.073522 -0.389157 -1.018651
  1C   3s        -1.065252  1.069763 -0.656193 -3.031908  1.099628  6.782010
  1C   1pz        0.085132  0.048635 -0.046658 -0.067465 -0.011370  0.021632
  1C   1px        0.213766  0.054805 -0.130453 -0.163761 -0.146333  0.038000
  1C   1py        0.185269  0.216976 -0.078839 -0.155473  0.171381  0.074786
  1C   2pz       -0.492873 -0.079470  0.140622  0.481383 -0.231485 -1.090961
  1C   2px       -1.002154  0.024049  0.510930  0.769251 -0.601874 -1.905303
  1C   2py       -1.463786 -0.543307  0.040529  1.774064 -0.462884 -3.747011
  2C   1s         0.001261 -0.000300 -0.010877 -0.021714 -0.018260  0.086604
  2C   2s        -0.344425  0.026441  1.019519 -0.874211 -0.734504  1.018527
  2C   3s         0.858309 -0.031549 -1.254074  2.468839  2.074472 -6.781306
  2C   1pz       -0.086412  0.011816 -0.067519  0.066889  0.014755 -0.021992
  2C   1px       -0.202999 -0.011403 -0.253253  0.167988  0.156298 -0.083733
  2C   1py       -0.211807  0.094560 -0.006011  0.145096 -0.167502 -0.001284
  2C   2pz        0.439792 -0.070291  0.146218 -0.382336 -0.387454  1.112337
  2C   2px        1.397666  0.039201  0.543201 -1.577098 -1.302417  4.196939
  2C   2py        0.469106 -0.513103  0.021444  0.201680 -0.285230  0.059384
  3C   1s         0.000321 -0.009547 -0.005222 -0.004908  0.027939 -0.086616
  3C   2s        -0.083647  0.895915  0.486711 -0.199360  1.124357 -1.018941
  3C   3s         0.205370 -1.103160 -0.598606  0.563301 -3.175671  6.784315
  3C   1pz        0.092953  0.012339 -0.025265 -0.064347 -0.012620  0.000653
  3C   1px        0.230338 -0.084405 -0.134382 -0.157015 -0.155026  0.045590
  3C   1py        0.206797  0.218744  0.063624 -0.146810  0.178414 -0.073568
  3C   2pz       -0.197316 -0.070458  0.134969 -0.103771 -0.007805 -0.021051
  3C   2px       -0.363895  0.060474  0.512118 -0.477165  1.050924 -2.294340
  3C   2py       -0.650341 -0.546274  0.003343  0.137971 -1.800811  3.688621
  4C   1s        -0.001648 -0.009267  0.005685  0.026678 -0.009659  0.086621
  4C   2s         0.428274  0.869910 -0.532203  1.073319 -0.389634  1.018897
  4C   3s        -1.061922 -1.070131  0.654968 -3.031607  1.101550 -6.784913
  4C   1pz       -0.085299  0.048483 -0.046765  0.067439  0.011537  0.021752
  4C   1px       -0.213717  0.054793 -0.130725  0.163687  0.146153  0.037970
  4C   1py       -0.185448  0.217051 -0.078687  0.155479 -0.171458  0.074778
  4C   2pz        0.494968 -0.078984  0.140568 -0.480989  0.230701 -1.089922
  4C   2px        1.004891  0.024285  0.511256 -0.769405  0.602766 -1.907039
  4C   2py        1.468780 -0.544176  0.039652 -1.773842  0.463069 -3.747590
  5C   1s         0.001329  0.000279  0.010858 -0.021727 -0.018256 -0.086626
  5C   2s        -0.344915 -0.026895 -1.019517 -0.873802 -0.734836 -1.018821
  5C   3s         0.854551  0.032526  1.254609  2.468402  2.076282  6.784911
  5C   1pz        0.086866  0.011979 -0.067478 -0.066976 -0.014681 -0.022328
  5C   1px        0.203377 -0.011472 -0.253264 -0.167883 -0.156462 -0.083711
  5C   1py        0.211754  0.094728 -0.006124 -0.145022  0.167392 -0.001293
  5C   2pz       -0.442951 -0.070526  0.145829  0.382455  0.386998  1.111922
  5C   2px       -1.403266  0.040182  0.542762  1.576465  1.302831  4.197800
  5C   2py       -0.469401 -0.513746  0.021331 -0.201492  0.286196  0.060899
  6H   1s        -0.113101  0.095735  0.052167  0.038316 -0.216479 -0.288064
  6H   2s        -0.148177 -0.017231 -0.009124  0.063478 -0.358889 -0.836869
  7H   1s         0.583146  0.092096 -0.056729 -0.206441  0.074886  0.288108
  7H   2s         0.763431 -0.017365  0.010186 -0.342171  0.124157  0.836232
  8H   1s        -0.469381 -0.002449 -0.108623  0.168120  0.141497 -0.288006
  8H   2s        -0.614734  0.001007  0.019634  0.278564  0.234528 -0.836242
  9H   1s        -0.114347 -0.095802 -0.051834  0.038391 -0.216475  0.288090
  9H   2s        -0.149721  0.017154  0.009571  0.063640 -0.358861  0.836927
 10H   1s         0.584492 -0.092192  0.056569 -0.206407  0.074826 -0.288095
 10H   2s         0.765095  0.017197 -0.010086 -0.342154  0.124135 -0.836272
 11H   1s        -0.470844  0.002663  0.108200  0.167961  0.141386  0.287934
 11H   2s        -0.616115 -0.000935 -0.019646  0.278360  0.234469  0.835835



                    ********************************
                    * MULLIKEN POPULATION ANALYSIS *
                    ********************************

-----------------------
MULLIKEN ATOMIC CHARGES
-----------------------
   0 C :   -0.238782
   1 C :   -0.238749
   2 C :   -0.238713
   3 C :   -0.238782
   4 C :   -0.238744
   5 C :   -0.238693
   6 H :    0.238791
   7 H :    0.238723
   8 H :    0.238730
   9 H :    0.238786
  10 H :    0.238729
  11 H :    0.238703
Sum of atomic charges:   -0.0000000

--------------------------------
MULLIKEN REDUCED ORBITAL CHARGES
--------------------------------
  0 C s       :     3.276323  s :     3.276323
      pz      :     0.989257  p :     2.962459
      px      :     0.941904
      py      :     1.031298
  1 C s       :     3.276318  s :     3.276318
      pz      :     1.002666  p :     2.962430
      px      :     0.923521
      py      :     1.036244
  2 C s       :     3.276304  s :     3.276304
      pz      :     1.003204  p :     2.962409
      px      :     1.081776
      py      :     0.877429
  3 C s       :     3.276318  s :     3.276318
      pz      :     0.989247  p :     2.962464
      px      :     0.941936
      py      :     1.031280
  4 C s       :     3.276281  s :     3.276281
      pz      :     1.002690  p :     2.962463
      px      :     0.923484
      py      :     1.036288
  5 C s       :     3.276266  s :     3.276266
      pz      :     1.003247  p :     2.962427
      px      :     1.081789
      py      :     0.877391
  6 H s       :     0.761209  s :     0.761209
  7 H s       :     0.761277  s :     0.761277
  8 H s       :     0.761270  s :     0.761270
  9 H s       :     0.761214  s :     0.761214
 10 H s       :     0.761271  s :     0.761271
 11 H s       :     0.761297  s :     0.761297


                     *******************************
                     * LOEWDIN POPULATION ANALYSIS *
                     *******************************

----------------------
LOEWDIN ATOMIC CHARGES
----------------------
   0 C :   -0.101674
   1 C :   -0.101660
   2 C :   -0.101660
   3 C :   -0.101666
   4 C :   -0.101666
   5 C :   -0.101650
   6 H :    0.101664
   7 H :    0.101667
   8 H :    0.101653
   9 H :    0.101661
  10 H :    0.101668
  11 H :    0.101663

-------------------------------
LOEWDIN REDUCED ORBITAL CHARGES
-------------------------------
  0 C s       :     2.928048  s :     2.928048
      pz      :     1.006465  p :     3.173626
      px      :     1.076940
      py      :     1.090221
  1 C s       :     2.928149  s :     2.928149
      pz      :     1.007892  p :     3.173511
      px      :     1.074941
      py      :     1.090679
  2 C s       :     2.928142  s :     2.928142
      pz      :     1.007957  p :     3.173518
      px      :     1.092009
      py      :     1.073552
  3 C s       :     2.928048  s :     2.928048
      pz      :     1.006449  p :     3.173618
      px      :     1.077010
      py      :     1.090159
  4 C s       :     2.928086  s :     2.928086
      pz      :     1.007902  p :     3.173580
      px      :     1.074992
      py      :     1.090686
  5 C s       :     2.928114  s :     2.928114
      pz      :     1.007967  p :     3.173536
      px      :     1.091988
      py      :     1.073581
  6 H s       :     0.898336  s :     0.898336
  7 H s       :     0.898333  s :     0.898333
  8 H s       :     0.898347  s :     0.898347
  9 H s       :     0.898339  s :     0.898339
 10 H s       :     0.898332  s :     0.898332
 11 H s       :     0.898337  s :     0.898337


                      *****************************
                      * MAYER POPULATION ANALYSIS *
                      *****************************

  NA   - Mulliken gross atomic population
  ZA   - Total nuclear charge
  QA   - Mulliken gross atomic charge
  VA   - Mayer's total valence
  BVA  - Mayer's bonded valence
  FA   - Mayer's free valence

  ATOM       NA         ZA         QA         VA         BVA        FA
  0 C      6.2388     6.0000    -0.2388     3.7463     3.7463     0.0000
  1 C      6.2387     6.0000    -0.2387     3.7463     3.7463    -0.0000
  2 C      6.2387     6.0000    -0.2387     3.7464     3.7464    -0.0000
  3 C      6.2388     6.0000    -0.2388     3.7463     3.7463    -0.0000
  4 C      6.2387     6.0000    -0.2387     3.7463     3.7463     0.0000
  5 C      6.2387     6.0000    -0.2387     3.7464     3.7464     0.0000
  6 H      0.7612     1.0000     0.2388     0.9178     0.9178    -0.0000
  7 H      0.7613     1.0000     0.2387     0.9179     0.9179    -0.0000
  8 H      0.7613     1.0000     0.2387     0.9179     0.9179     0.0000
  9 H      0.7612     1.0000     0.2388     0.9179     0.9179    -0.0000
 10 H      0.7613     1.0000     0.2387     0.9179     0.9179    -0.0000
 11 H      0.7613     1.0000     0.2387     0.9179     0.9179     0.0000

  Mayer bond orders larger than 0.1
B(  0-C ,  1-C ) :   1.4019 B(  0-C ,  3-C ) :   0.1055 B(  0-C ,  5-C ) :   1.4024 
B(  0-C ,  6-H ) :   0.9389 B(  1-C ,  2-C ) :   1.4023 B(  1-C ,  4-C ) :   0.1055 
B(  1-C ,  7-H ) :   0.9389 B(  2-C ,  3-C ) :   1.4019 B(  2-C ,  5-C ) :   0.1055 
B(  2-C ,  8-H ) :   0.9389 B(  3-C ,  4-C ) :   1.4023 B(  3-C ,  9-H ) :   0.9389 
B(  4-C ,  5-C ) :   1.4018 B(  4-C , 10-H ) :   0.9389 B(  5-C , 11-H ) :   0.9389 


-------
TIMINGS
-------

Total SCF time: 0 days 0 hours 0 min 1 sec 

Total time                  ....       1.886 sec
Sum of individual times     ....       2.283 sec  (121.1%)

Fock matrix formation       ....       1.875 sec  ( 99.4%)
Diagonalization             ....       0.003 sec  (  0.2%)
Density matrix formation    ....       0.000 sec  (  0.0%)
Population analysis         ....       0.001 sec  (  0.1%)
Initial guess               ....       0.289 sec  ( 15.3%)
Orbital Transformation      ....       0.000 sec  (  0.0%)
Orbital Orthonormalization  ....       0.000 sec  (  0.0%)
DIIS solution               ....       0.001 sec  (  0.0%)
SOSCF solution              ....       0.002 sec  (  0.1%)

-------------------------   --------------------
FINAL SINGLE POINT ENERGY      -229.417746603532
-------------------------   --------------------


                            ***************************************
                            *     ORCA property calculations      *
                            ***************************************

                                    ---------------------
                                    Active property flags
                                    ---------------------
   (+) Dipole Moment


------------------------------------------------------------------------------
                       ORCA ELECTRIC PROPERTIES CALCULATION
------------------------------------------------------------------------------

Dipole Moment Calculation                       ... on
Quadrupole Moment Calculation                   ... off
Polarizability Calculation                      ... off
GBWName                                         ... benzene_orca.gbw
Electron density file                           ... benzene_orca.scfp.tmp

-------------
DIPOLE MOMENT
-------------
                                X             Y             Z
Electronic contribution:      0.00010       0.00001       0.00003
Nuclear contribution   :      0.00000      -0.00000      -0.00000
                        -----------------------------------------
Total Dipole Moment    :      0.00010       0.00001       0.00003
                        -----------------------------------------
Magnitude (a.u.)       :      0.00010
Magnitude (Debye)      :      0.00026


Timings for individual modules:

Sum of individual times         ...        2.285 sec (=   0.038 min)
GTO integral calculation        ...        0.103 sec (=   0.002 min)   4.5 %
SCF iterations                  ...        2.182 sec (=   0.036 min)  95.5 %
                             ****ORCA TERMINATED NORMALLY****
TOTAL RUN TIME: 0 days 0 hours 0 minutes 2 seconds 347 msec
