
                                 *****************
                                 * O   R   C   A *
                                 *****************

           --- An Ab Initio, DFT and Semiempirical electronic structure package ---

                  #######################################################
                  #                        -***-                        #
                  #  Department of molecular theory and spectroscopy    #
                  #              Directorship: Frank Neese              #
                  # Max Planck Institute for Chemical Energy Conversion #
                  #                  D-45470 Muelheim/Ruhr              #
                  #                       Germany                       #
                  #                                                     #
                  #                  All rights reserved                #
                  #                        -***-                        #
                  #######################################################


                         Program Version 3.0.3 - RELEASE   -


 With contributions from (in alphabetic order):
   Ute Becker             : Parallelization
   Dmytro Bykov           : SCF Hessian
   Dmitry Ganyushin       : Spin-Orbit,Spin-Spin,Magnetic field MRCI
   Andreas Hansen         : Spin unrestricted coupled pair/coupled cluster methods
   Dimitrios Liakos       : Extrapolation schemes; parallel MDCI
   Robert Izsak           : Overlap fitted RIJCOSX, COSX-SCS-MP3
   Christian Kollmar      : KDIIS, OOCD, Brueckner-CCSD(T), CCSD density
   Simone Kossmann        : Meta GGA functionals, TD-DFT gradient, OOMP2, MP2 Hessian
   Taras Petrenko         : DFT Hessian,TD-DFT gradient, ASA and ECA modules, normal mode analysis, Resonance Raman, ABS, FL, XAS/XES, NRVS
   Christoph Reimann      : Effective Core Potentials
   Michael Roemelt        : Restricted open shell CIS
   Christoph Riplinger    : Improved optimizer, TS searches, QM/MM, DLPNO-CCSD
   Barbara Sandhoefer     : DKH picture change effects
   Igor Schapiro          : Molecular dynamics
   Kantharuban Sivalingam : CASSCF convergence, NEVPT2
   Boris Wezisla          : Elementary symmetry handling
   Frank Wennmohs         : Technical directorship


 We gratefully acknowledge several colleagues who have allowed us to
 interface, adapt or use parts of their codes:
   Stefan Grimme, W. Hujo, H. Kruse, T. Risthaus : VdW corrections, initial TS optimization,
                                                   DFT functionals, gCP
   Ed Valeev                                     : LibInt (2-el integral package), F12 methods
   Garnet Chan, S. Sharma, R. Olivares           : DMRG
   Ulf Ekstrom                                   : XCFun DFT Library
   Mihaly Kallay                                 : mrcc  (arbitrary order and MRCC methods)
   Andreas Klamt, Michael Diedenhofen            : otool_cosmo (COSMO solvation model)
   Frank Weinhold                                : gennbo (NPA and NBO analysis)
   Christopher J. Cramer and Donald G. Truhlar   : smd solvation model


 Your calculation uses the libint2 library for the computation of 2-el integrals
 For citations please refer to: http://libint.valeyev.net

 This ORCA versions uses:
   CBLAS   interface :  Fast vector & matrix operations
   LAPACKE interface :  Fast linear algebra routines
   SCALAPACK package :  Parallel linear algebra routines


Your calculation utilizes the basis: 3-21G
Cite in your paper:
H - Ne: J.S. Binkley, J.A. Pople, W.J. Hehre, J. Am. Chem. Soc. 102 939 (1980)
Na - Ar: M.S. Gordon, J.S. Binkley, J.A. Pople, W.J. Pietro and W.J. Hehre,
         J. Am. Chem. Soc. 104, 2797 (1983).
 K - Ca: K.D. Dobbs, W.J. Hehre, J. Comput. Chem. 7, 359 (1986).
Ga - Kr: K.D. Dobbs, W.J. Hehre, J. Comput. Chem. 7, 359 (1986).
Sc - Zn: K.D. Dobbs, W.J. Hehre, J. Comput. Chem. 8, 861 (1987).
Y - Cd: K.D. Dobbs, W.J. Hehre, J. Comput. Chem. 8, 880 (1987).
Cs     : A 3-21G quality set derived from the Huzinage MIDI basis sets.
        E.D. Glendening and D. Feller, J. Phys. Chem. (to be published)

================================================================================
                                        WARNINGS
                       Please study these warnings very carefully!
================================================================================
Now building the actual basis set

WARNING: your system is open-shell and RHF/RKS was chosen
  ===> : WILL SWITCH to UHF/UKS



INFO   : the flag for use of LIBINT has been found!

================================================================================
                                       INPUT FILE
================================================================================
NAME = benzene_orca_cat.inp
|  1> # ================================================================
|  2> # Orca input file made in Gabedit
|  3> # ================================================================
|  4> !  HF 
|  5> ! PrintBasis 3-21G 
|  6> %output
|  7>      print[p_mos] 1
|  8>  end #output
|  9> * xyz 1   2
| 10>  C  -0.739000 1.189000 -0.007334
| 11>  C  0.614000 1.208000 0.351666
| 12>  C  1.353000 0.019000 0.358666
| 13>  C  0.739000 -1.189000 0.006666
| 14>  C  -0.614000 -1.208000 -0.351334
| 15>  C  -1.353000 -0.019000 -0.358334
| 16>  H  -1.309000 2.106000 -0.012334
| 17>  H  1.088000 2.140000 0.622666
| 18>  H  2.397000 0.034000 0.634666
| 19>  H  1.309000 -2.106000 0.012666
| 20>  H  -1.088000 -2.140000 -0.622334
| 21>  H  -2.397000 -0.034000 -0.635334
| 22> *
| 23> %geom Constraints
| 24>   {C 0 C}
| 25>   {C 1 C}
| 26>   {C 2 C}
| 27>   {C 3 C}
| 28>   {C 4 C}
| 29>   {C 5 C}
| 30>   {C 6 C}
| 31>   {C 7 C}
| 32>   {C 8 C}
| 33>   {C 9 C}
| 34>   {C 10 C}
| 35>   {C 11 C}
| 36>  end #Constraints
| 37>  invertConstraints true
| 38>  end #geom
| 39> 
| 40>                          ****END OF INPUT****
================================================================================

                       ****************************
                       * Single Point Calculation *
                       ****************************

---------------------------------
CARTESIAN COORDINATES (ANGSTROEM)
---------------------------------
  C     -0.739000    1.189000   -0.007334
  C      0.614000    1.208000    0.351666
  C      1.353000    0.019000    0.358666
  C      0.739000   -1.189000    0.006666
  C     -0.614000   -1.208000   -0.351334
  C     -1.353000   -0.019000   -0.358334
  H     -1.309000    2.106000   -0.012334
  H      1.088000    2.140000    0.622666
  H      2.397000    0.034000    0.634666
  H      1.309000   -2.106000    0.012666
  H     -1.088000   -2.140000   -0.622334
  H     -2.397000   -0.034000   -0.635334

----------------------------
CARTESIAN COORDINATES (A.U.)
----------------------------
  NO LB      ZA    FRAG    MASS        X           Y           Z
   0 C     6.0000    0    12.011         -1.396507612967805          2.246884373232368         -0.013859251466178
   1 C     6.0000    0    12.011          1.160291846227649          2.282789169776872          0.664552430611551
   2 C     6.0000    0    12.011          2.556799459195453          0.035904796544504          0.677780513549000
   3 C     6.0000    0    12.011          1.396507612967805         -2.246884373232368          0.012596914408719
   4 C     6.0000    0    12.011         -1.160291846227649         -2.282789169776872         -0.663925041535089
   5 C     6.0000    0    12.011         -2.556799459195453         -0.035904796544504         -0.677153124472538
   6 H     1.0000    0     1.008         -2.473651509302918          3.979763238038156         -0.023307882135785
   7 H     1.0000    0     1.008          2.056022033706322          4.044013926591479          1.176668212904210
   8 H     1.0000    0     1.008          4.529673543009240          0.064250688553323          1.199344926511265
   9 H     1.0000    0     1.008          2.473651509302918         -3.979763238038156          0.023935271212247
  10 H     1.0000    0     1.008         -2.056022033706322         -4.044013926591479         -1.176040823827748
  11 H     1.0000    0     1.008         -4.529673543009240         -0.064250688553323         -1.200607263568724

--------------------------------
INTERNAL COORDINATES (ANGSTROEM)
--------------------------------
 C      0   0   0   0.000000     0.000     0.000
 C      1   0   0   1.399947     0.000     0.000
 C      2   1   0   1.399961   119.995     0.000
 C      3   2   1   1.400059   120.003     0.000
 C      4   3   2   1.399691   119.996   359.955
 C      1   2   3   1.399807   119.996     0.045
 H      1   2   3   1.079729   119.991   179.976
 H      2   1   3   1.080158   120.010   179.962
 H      3   2   1   1.079971   119.985   179.938
 H      4   3   2   1.079734   119.991   180.034
 H      5   4   3   1.080158   120.005   180.038
 H      6   1   2   1.080227   120.013   179.996

---------------------------
INTERNAL COORDINATES (A.U.)
---------------------------
 C      0   0   0   0.000000     0.000     0.000
 C      1   0   0   2.645516     0.000     0.000
 C      2   1   0   2.645543   119.995     0.000
 C      3   2   1   2.645727   120.003     0.000
 C      4   3   2   2.645032   119.996   359.955
 C      1   2   3   2.645253   119.996     0.045
 H      1   2   3   2.040391   119.991   179.976
 H      2   1   3   2.041203   120.010   179.962
 H      3   2   1   2.040849   119.985   179.938
 H      4   3   2   2.040401   119.991   180.034
 H      5   4   3   2.041203   120.005   180.038
 H      6   1   2   2.041333   120.013   179.996

---------------------
BASIS SET INFORMATION
---------------------
There are 2 groups of distinct atoms

 Group   1 Type C   : 6s3p contracted to 3s2p pattern {321/21}
 Group   2 Type H   : 3s contracted to 2s pattern {21}

Atom   0C    basis set group =>   1
Atom   1C    basis set group =>   1
Atom   2C    basis set group =>   1
Atom   3C    basis set group =>   1
Atom   4C    basis set group =>   1
Atom   5C    basis set group =>   1
Atom   6H    basis set group =>   2
Atom   7H    basis set group =>   2
Atom   8H    basis set group =>   2
Atom   9H    basis set group =>   2
Atom  10H    basis set group =>   2
Atom  11H    basis set group =>   2

-------------------------
BASIS SET IN INPUT FORMAT
-------------------------

 # Basis set for element : H 
 NewGTO H 
 S 2 
   1       5.4471780000      0.1562849807
   2       0.8245470000      0.9046908881
 S 1 
   1       0.1831920000      1.0000000000
  end;

 # Basis set for element : C 
 NewGTO C 
 S 3 
   1     172.2560000000      0.0617669074
   2      25.9109000000      0.3587940429
   3       5.5333500000      0.7007130837
 S 2 
   1       3.6649800000     -0.3958951621
   2       0.7705450000      1.2158343557
 S 1 
   1       0.1958570000      1.0000000000
 P 2 
   1       3.6649800000      0.2364599466
   2       0.7705450000      0.8606188057
 P 1 
   1       0.1958570000      1.0000000000
  end;


Checking for AutoStart:
The File: benzene_orca_cat.gbw exists
Trying to determine its content:
     ... Fine, the file contains calculation information
     ... Fine, the calculation information was read
     ... Fine, the file contains a basis set
     ... Fine, the basis set was read
     ... Fine, the file contains a geometry
     ... Fine, the geometry was read
     ... Fine, the file contains a set of orbitals
     ... Fine, the orbitals can be read
     => possible old guess file was deleted
     => GBW file was renamed to GES file
     => GES file is set as startup file
     => Guess is set to MORead
     ... now leaving AutoStart

------------------------------------------------------------------------------
                           ORCA GTO INTEGRAL CALCULATION
------------------------------------------------------------------------------

                         BASIS SET STATISTICS AND STARTUP INFO

 # of primitive gaussian shells          ...   72
 # of primitive gaussian functions       ...  108
 # of contracted shell                   ...   42
 # of contracted basis functions         ...   66
 Highest angular momentum                ...    1
 Maximum contraction depth               ...    3
 Integral package used                   ... LIBINT
 Integral threshhold            Thresh   ...  1.000e-10
 Primitive cut-off              TCut     ...  1.000e-11


                              INTEGRAL EVALUATION

 One electron integrals                  ... done
 Pre-screening matrix                    ... done
 Shell pair data                         ... done (   0.000 sec)

-------------------------------------------------------------------------------
                                 ORCA SCF
-------------------------------------------------------------------------------

------------
SCF SETTINGS
------------
Hamiltonian:
 Ab initio Hamiltonian  Method          .... Hartree-Fock(GTOs)


General Settings:
 Integral files         IntName         .... benzene_orca_cat
 Hartree-Fock type      HFTyp           .... UHF
 Total Charge           Charge          ....    1
 Multiplicity           Mult            ....    2
 Number of Electrons    NEL             ....   41
 Basis Dimension        Dim             ....   66
 Nuclear Repulsion      ENuc            ....    202.9797467944 Eh

Convergence Acceleration:
 DIIS                   CNVDIIS         .... on
   Start iteration      DIISMaxIt       ....    12
   Startup error        DIISStart       ....  0.200000
   # of expansion vecs  DIISMaxEq       ....     5
   Bias factor          DIISBfac        ....   1.050
   Max. coefficient     DIISMaxC        ....  10.000
 Newton-Raphson         CNVNR           .... off
 SOSCF                  CNVSOSCF        .... off
 Level Shifting         CNVShift        .... on
   Level shift para.    LevelShift      ....    0.2500
   Turn off err/grad.   ShiftErr        ....    0.0010
 Zerner damping         CNVZerner       .... off
 Static damping         CNVDamp         .... on
   Fraction old density DampFac         ....    0.7000
   Max. Damping (<1)    DampMax         ....    0.9800
   Min. Damping (>=0)   DampMin         ....    0.0000
   Turn off err/grad.   DampErr         ....    0.1000
 Fernandez-Rico         CNVRico         .... off

SCF Procedure:
 Maximum # iterations   MaxIter         ....   125
 SCF integral mode      SCFMode         .... Direct
   Integral package                     .... LIBINT
 Reset frequeny         DirectResetFreq ....    20
 Integral Threshold     Thresh          ....  1.000e-10 Eh
 Primitive CutOff       TCut            ....  1.000e-11 Eh

Convergence Tolerance:
 Convergence Check Mode ConvCheckMode   .... Total+1el-Energy
 Energy Change          TolE            ....  1.000e-06 Eh
 1-El. energy change                    ....  1.000e-03 Eh
 DIIS Error             TolErr          ....  1.000e-06


Diagonalization of the overlap matrix:
Smallest eigenvalue                        ... 1.824e-03
Time for diagonalization                   ...    0.001 sec
Threshold for overlap eigenvalues          ... 1.000e-08
Number of eigenvalues below threshold      ... 0
Time for construction of square roots      ...    0.000 sec
Total time needed                          ...    0.001 sec

---------------------
INITIAL GUESS: MOREAD
---------------------
Guess MOs are being read from file: benzene_orca_cat.ges
Input Geometry matches current geometry (good)
Input basis set matches current basis set (good)
MOs were renormalized
MOs were reorthogonalized (Cholesky)
                      ------------------
                      INITIAL GUESS DONE (   0.0 sec)
                      ------------------
--------------
SCF ITERATIONS
--------------
ITER       Energy         Delta-E        Max-DP      RMS-DP      [F,P]     Damp
               ***  Starting incremental Fock matrix formation  ***
  0   -229.1217739147   0.000000000000 0.00000037  0.00000002  0.0000005 0.7000
                 **** Energy Check signals convergence ****

               *****************************************************
               *                     SUCCESS                       *
               *           SCF CONVERGED AFTER   1 CYCLES          *
               *****************************************************


----------------
TOTAL SCF ENERGY
----------------

Total Energy       :         -229.12177392 Eh           -6234.72044 eV

Components:
Nuclear Repulsion  :          202.97974679 Eh            5523.35971 eV
Electronic Energy  :         -432.10152071 Eh          -11758.08015 eV

One Electron Energy:         -700.30112803 Eh          -19056.16249 eV
Two Electron Energy:          268.19960732 Eh            7298.08234 eV

Virial components:
Potential Energy   :         -457.75532385 Eh          -12456.15562 eV
Kinetic Energy     :          228.63354993 Eh            6221.43519 eV
Virial Ratio       :            2.00213540


---------------
SCF CONVERGENCE
---------------

  Last Energy change         ...   -7.8376e-10  Tolerance :   1.0000e-06
  Last MAX-Density change    ...    3.8845e-07  Tolerance :   1.0000e-05
  Last RMS-Density change    ...    1.7572e-08  Tolerance :   1.0000e-06
  Last DIIS Error            ...    4.4335e-07  Tolerance :   1.0000e-06

             **** THE GBW FILE WAS UPDATED (benzene_orca_cat.gbw) ****
             **** DENSITY FILE WAS UPDATED (benzene_orca_cat.scfp.tmp) ****
             **** ENERGY FILE WAS UPDATED (benzene_orca_cat.en.tmp) ****
----------------------
UHF SPIN CONTAMINATION
----------------------

Expectation value of <S**2>     :     0.868228
Ideal value S*(S+1) for S=0.5   :     0.750000
Deviation                       :     0.118228

----------------
ORBITAL ENERGIES
----------------
                 SPIN UP ORBITALS
  NO   OCC          E(Eh)            E(eV) 
   0   1.0000     -11.448146      -311.5199 
   1   1.0000     -11.448050      -311.5173 
   2   1.0000     -11.447804      -311.5106 
   3   1.0000     -11.447495      -311.5022 
   4   1.0000     -11.395203      -310.0792 
   5   1.0000     -11.395011      -310.0740 
   6   1.0000      -1.409345       -38.3502 
   7   1.0000      -1.287311       -35.0295 
   8   1.0000      -1.241699       -33.7883 
   9   1.0000      -1.069116       -29.0921 
  10   1.0000      -1.061431       -28.8830 
  11   1.0000      -0.949306       -25.8319 
  12   1.0000      -0.868498       -23.6330 
  13   1.0000      -0.866704       -23.5842 
  14   1.0000      -0.840405       -22.8686 
  15   1.0000      -0.809278       -22.0216 
  16   1.0000      -0.762134       -20.7387 
  17   1.0000      -0.726186       -19.7605 
  18   1.0000      -0.721870       -19.6431 
  19   1.0000      -0.630108       -17.1461 
  20   1.0000      -0.554369       -15.0851 
  21   0.0000      -0.133950        -3.6450 
  22   0.0000      -0.063875        -1.7381 
  23   0.0000       0.059493         1.6189 
  24   0.0000       0.120003         3.2654 
  25   0.0000       0.124430         3.3859 
  26   0.0000       0.135893         3.6978 
  27   0.0000       0.159790         4.3481 
  28   0.0000       0.178608         4.8602 
  29   0.0000       0.184315         5.0155 
  30   0.0000       0.270916         7.3720 
  31   0.0000       0.280126         7.6226 
  32   0.0000       0.286657         7.8003 
  33   0.0000       0.295651         8.0451 
  34   0.0000       0.570497        15.5240 
  35   0.0000       0.575087        15.6489 
  36   0.0000       0.657195        17.8832 
  37   0.0000       0.670760        18.2523 
  38   0.0000       0.705366        19.1940 
  39   0.0000       0.762286        20.7428 
  40   0.0000       0.770764        20.9735 
  41   0.0000       0.788514        21.4566 
  42   0.0000       0.827388        22.5144 
  43   0.0000       0.846508        23.0346 
  44   0.0000       0.846933        23.0462 
  45   0.0000       0.853286        23.2191 
  46   0.0000       0.890944        24.2438 
  47   0.0000       0.902412        24.5559 
  48   0.0000       0.948898        25.8208 
  49   0.0000       1.048812        28.5396 
  50   0.0000       1.079494        29.3745 
  51   0.0000       1.102255        29.9939 
  52   0.0000       1.177500        32.0414 
  53   0.0000       1.184150        32.2224 
  54   0.0000       1.202894        32.7324 
  55   0.0000       1.330274        36.1986 
  56   0.0000       1.337466        36.3943 
  57   0.0000       1.370930        37.3049 
  58   0.0000       1.499572        40.8054 
  59   0.0000       1.500699        40.8361 
  60   0.0000       1.519466        41.3468 
  61   0.0000       1.538845        41.8741 
  62   0.0000       1.566609        42.6296 
  63   0.0000       1.906308        51.8733 
  64   0.0000       1.919383        52.2291 
  65   0.0000       2.511371        68.3379 

                 SPIN DOWN ORBITALS
  NO   OCC          E(Eh)            E(eV) 
   0   1.0000     -11.439671      -311.2893 
   1   1.0000     -11.439572      -311.2866 
   2   1.0000     -11.439180      -311.2759 
   3   1.0000     -11.438892      -311.2681 
   4   1.0000     -11.402549      -310.2791 
   5   1.0000     -11.402361      -310.2740 
   6   1.0000      -1.382409       -37.6173 
   7   1.0000      -1.245704       -33.8973 
   8   1.0000      -1.230152       -33.4741 
   9   1.0000      -1.055681       -28.7265 
  10   1.0000      -1.044703       -28.4278 
  11   1.0000      -0.944478       -25.7006 
  12   1.0000      -0.860960       -23.4279 
  13   1.0000      -0.859705       -23.3938 
  14   1.0000      -0.829231       -22.5645 
  15   1.0000      -0.811989       -22.0953 
  16   1.0000      -0.724144       -19.7050 
  17   1.0000      -0.717588       -19.5266 
  18   1.0000      -0.677604       -18.4385 
  19   1.0000      -0.575873       -15.6703 
  20   0.0000      -0.256731        -6.9860 
  21   0.0000      -0.048384        -1.3166 
  22   0.0000      -0.019774        -0.5381 
  23   0.0000       0.062749         1.7075 
  24   0.0000       0.125007         3.4016 
  25   0.0000       0.136384         3.7112 
  26   0.0000       0.164090         4.4651 
  27   0.0000       0.173591         4.7236 
  28   0.0000       0.177525         4.8307 
  29   0.0000       0.188082         5.1180 
  30   0.0000       0.280668         7.6374 
  31   0.0000       0.282631         7.6908 
  32   0.0000       0.292768         7.9666 
  33   0.0000       0.299515         8.1502 
  34   0.0000       0.578322        15.7369 
  35   0.0000       0.584329        15.9004 
  36   0.0000       0.661282        17.9944 
  37   0.0000       0.673058        18.3148 
  38   0.0000       0.736413        20.0388 
  39   0.0000       0.768772        20.9194 
  40   0.0000       0.775978        21.1154 
  41   0.0000       0.829010        22.5585 
  42   0.0000       0.842554        22.9271 
  43   0.0000       0.851892        23.1812 
  44   0.0000       0.858408        23.3585 
  45   0.0000       0.883425        24.0392 
  46   0.0000       0.892509        24.2864 
  47   0.0000       0.906382        24.6639 
  48   0.0000       0.960045        26.1241 
  49   0.0000       1.052198        28.6318 
  50   0.0000       1.084319        29.5058 
  51   0.0000       1.101197        29.9651 
  52   0.0000       1.179232        32.0885 
  53   0.0000       1.188135        32.3308 
  54   0.0000       1.202190        32.7133 
  55   0.0000       1.336204        36.3600 
  56   0.0000       1.338176        36.4136 
  57   0.0000       1.377581        37.4859 
  58   0.0000       1.503495        40.9122 
  59   0.0000       1.506250        40.9871 
  60   0.0000       1.519463        41.3467 
  61   0.0000       1.563360        42.5412 
  62   0.0000       1.563819        42.5537 
  63   0.0000       1.919656        52.2365 
  64   0.0000       1.924861        52.3781 
  65   0.0000       2.518097        68.5209 
------------------
MOLECULAR ORBITALS
------------------
                      0         1         2         3         4         5   
                 -11.44815 -11.44805 -11.44780 -11.44749 -11.39520 -11.39501
                   1.00000   1.00000   1.00000   1.00000   1.00000   1.00000
                  --------  --------  --------  --------  --------  --------
  0C   1s        -0.003326  0.001586  0.001002  0.005690  0.704459  0.691858
  0C   2s        -0.004538  0.001977  0.000995  0.004520  0.071642  0.068763
  0C   3s         0.047126 -0.019054 -0.007475 -0.021914 -0.074969 -0.055447
  0C   1pz        0.000022 -0.000071  0.000489 -0.000042  0.000009  0.000007
  0C   1px       -0.000203 -0.000040  0.001491  0.000835  0.000828  0.000484
  0C   1py        0.000478 -0.000382  0.000617 -0.001664 -0.001333 -0.000780
  0C   2pz        0.000832  0.002621 -0.003102  0.000136 -0.000136 -0.000067
  0C   2px        0.016699  0.001490 -0.010781 -0.005479 -0.012840 -0.006058
  0C   2py       -0.022634  0.014182 -0.001701  0.010023  0.020670  0.009755
  1C   1s         0.590886  0.293470 -0.577021 -0.454252  0.001776  0.003692
  1C   2s         0.063101  0.030082 -0.056600 -0.043620 -0.003088 -0.002502
  1C   3s        -0.088019 -0.020428  0.035846  0.026574  0.036196  0.015618
  1C   1pz       -0.000268 -0.000287  0.000289 -0.000107  0.000279  0.000341
  1C   1px        0.000164 -0.000616  0.000879 -0.000263  0.001203  0.000635
  1C   1py       -0.001973 -0.000791  0.000363 -0.000243 -0.000232  0.001105
  1C   2pz        0.007591  0.000118 -0.002014 -0.001152 -0.006624 -0.003055
  1C   2px        0.008856 -0.001207 -0.006779 -0.004275 -0.016291 -0.009173
  1C   2py        0.033386  0.002761 -0.001454 -0.000159 -0.014884 -0.004078
  2C   1s        -0.679483 -0.281893 -0.509514 -0.416894 -0.001709  0.003721
  2C   2s        -0.071735 -0.028861 -0.049307 -0.039787  0.003042 -0.002556
  2C   3s         0.092874  0.019954  0.023725  0.023813 -0.035908  0.016250
  2C   1pz        0.000330  0.000241  0.000270 -0.000141 -0.000264  0.000352
  2C   1px        0.001794  0.000856  0.000543 -0.000453 -0.000300  0.001276
  2C   1py       -0.000903  0.000102  0.000803 -0.000146 -0.001182  0.000104
  2C   2pz       -0.008048 -0.000121 -0.000730 -0.001092  0.006607 -0.003158
  2C   2px       -0.034087 -0.001966  0.000936 -0.001684  0.020379 -0.008066
  2C   2py        0.005829  0.002519 -0.006174 -0.004089  0.007960 -0.006589
  3C   1s         0.003448 -0.000957  0.000302  0.005838 -0.692145  0.704177
  3C   2s         0.004635 -0.001470  0.000048  0.004719 -0.070417  0.070016
  3C   3s        -0.047606  0.016543  0.002292 -0.023972  0.073979 -0.056761
  3C   1pz        0.000050  0.000008  0.000489 -0.000066  0.000006 -0.000003
  3C   1px       -0.000142  0.000071  0.001276 -0.001149  0.000820 -0.000500
  3C   1py        0.000562 -0.000072  0.000978  0.001496 -0.001319  0.000803
  3C   2pz       -0.001053 -0.002306 -0.003232  0.000564 -0.000108  0.000050
  3C   2px        0.011647 -0.011497 -0.009753  0.008061 -0.012747  0.006294
  3C   2py       -0.026085  0.004526 -0.004260 -0.009854  0.020484 -0.010111
  4C   1s        -0.251315  0.573833  0.493337 -0.582017 -0.001710  0.003725
  4C   2s        -0.027661  0.060660  0.048794 -0.056282  0.003046 -0.002558
  4C   3s         0.052611 -0.071294 -0.032282  0.035604 -0.035932  0.016266
  4C   1pz       -0.000019  0.000372  0.000328  0.000036  0.000274 -0.000346
  4C   1px        0.000506  0.000296  0.000949  0.000066  0.001194 -0.000659
  4C   1py       -0.000966  0.001874  0.000501  0.000117 -0.000252 -0.001101
  4C   2pz        0.005613 -0.004980 -0.001877  0.001715 -0.006569  0.003167
  4C   2px        0.007499 -0.004545 -0.005780  0.005846 -0.016138  0.009465
  4C   2py        0.023192 -0.024091 -0.002289  0.001154 -0.014810  0.004340
  5C   1s         0.319209 -0.692847  0.371344 -0.504718  0.001774  0.003691
  5C   2s         0.034308 -0.072190  0.035827 -0.048177 -0.003089 -0.002504
  5C   3s        -0.056280  0.077940 -0.014550  0.026553  0.036208  0.015627
  5C   1pz        0.000078 -0.000415  0.000270  0.000087 -0.000272 -0.000347
  5C   1px        0.000755 -0.001863  0.000535  0.000358 -0.000323 -0.001271
  5C   1py       -0.000764  0.000471  0.000827 -0.000053 -0.001186 -0.000085
  5C   2pz       -0.005939  0.005458 -0.000283  0.001053  0.006664  0.003039
  5C   2px       -0.024272  0.023998  0.002150  0.000749  0.020521  0.007707
  5C   2py        0.002738 -0.005340 -0.005400  0.005469  0.008086  0.006454
  6H   1s         0.000526 -0.000174 -0.000008  0.000415 -0.001869 -0.001441
  6H   2s         0.005941 -0.002466 -0.001064 -0.003821  0.002257  0.005620
  7H   1s        -0.001691 -0.000216  0.001336  0.001172  0.000392 -0.000318
  7H   2s        -0.001193  0.002466 -0.005260 -0.005536  0.004666  0.002858
  8H   1s         0.001889  0.000214  0.001076  0.001142 -0.000398 -0.000310
  8H   2s         0.000295 -0.002475 -0.005680 -0.005237 -0.004614  0.002944
  9H   1s        -0.000518  0.000218  0.000100  0.000392  0.001843 -0.001474
  9H   2s        -0.006025  0.002031  0.000170 -0.004080 -0.002157  0.005658
 10H   1s         0.001128 -0.001196 -0.001093  0.001471 -0.000398 -0.000311
 10H   2s         0.002523  0.000715  0.004032 -0.006532 -0.004615  0.002941
 11H   1s        -0.001271  0.001477 -0.000740  0.001310  0.000392 -0.000317
 11H   2s        -0.001877 -0.002009  0.004222 -0.006357  0.004663  0.002861
                      6         7         8         9        10        11   
                  -1.40935  -1.28731  -1.24170  -1.06912  -1.06143  -0.94931
                   1.00000   1.00000   1.00000   1.00000   1.00000   1.00000
                  --------  --------  --------  --------  --------  --------
  0C   1s         0.085521 -0.000039  0.130848 -0.000317  0.111302 -0.028078
  0C   2s        -0.099050  0.000044 -0.142651  0.000326 -0.114773  0.024708
  0C   3s        -0.124170  0.000061 -0.267047  0.000976 -0.344762  0.125669
  0C   1pz       -0.000343 -0.026621 -0.000244  0.051078  0.000184 -0.000781
  0C   1px       -0.032702 -0.073742 -0.020071  0.141470  0.010623 -0.083175
  0C   1py        0.052656 -0.046023  0.032369  0.088322 -0.016160  0.133833
  0C   2pz       -0.000029  0.002027 -0.000080  0.012875 -0.000152 -0.000391
  0C   2px       -0.000356  0.005613 -0.002853  0.035694 -0.014044 -0.044014
  0C   2py        0.000575  0.003501  0.004618  0.022187  0.022846  0.070812
  1C   1s         0.102543  0.120338  0.074877 -0.097621 -0.047954 -0.010412
  1C   2s        -0.116558 -0.131625 -0.080042  0.101975  0.048982  0.007286
  1C   3s        -0.209163 -0.293871 -0.220231  0.353261  0.171294  0.055755
  1C   1pz        0.014258 -0.001433  0.017701 -0.002289  0.038422  0.040253
  1C   1px        0.018763 -0.038151  0.086976 -0.060138  0.172075  0.052398
  1C   1py        0.059132  0.054431 -0.032851  0.086038 -0.043185  0.168304
  1C   2pz        0.005534  0.003664  0.008113 -0.004841  0.012926  0.031453
  1C   2px        0.009932  0.003504  0.018448 -0.023871  0.061691  0.048840
  1C   2py        0.018465  0.017317  0.020548  0.009289 -0.020814  0.118338
  2C   1s         0.102564  0.120384 -0.074848  0.097871 -0.047404 -0.010411
  2C   2s        -0.116578 -0.131673  0.080006 -0.102231  0.048414  0.007287
  2C   3s        -0.209289 -0.294084  0.220194 -0.354208  0.169314  0.055767
  2C   1pz        0.014656 -0.000773 -0.016954  0.001028  0.037155  0.041424
  2C   1px        0.061234  0.031889 -0.008897 -0.050856  0.036985  0.174005
  2C   1py       -0.009228 -0.058303 -0.092693  0.091071  0.174291 -0.027106
  2C   2pz        0.005649  0.003804 -0.008191  0.004564  0.012460  0.032209
  2C   2px        0.020946  0.017073 -0.026527  0.002087  0.008622  0.127669
  2C   2py        0.000775 -0.004509 -0.007527  0.025214  0.064838 -0.008277
  3C   1s         0.085523 -0.000026 -0.130841 -0.000333  0.111313 -0.028040
  3C   2s        -0.099053  0.000032  0.142643  0.000354 -0.114784  0.024667
  3C   3s        -0.124162  0.000046  0.267025  0.000976 -0.344802  0.125544
  3C   1pz        0.000280 -0.026621 -0.000147 -0.051065 -0.000316  0.000797
  3C   1px        0.032752 -0.073778 -0.020179 -0.141500 -0.010611  0.083150
  3C   1py       -0.052625 -0.045983  0.032296 -0.088259  0.016164 -0.133847
  3C   2pz       -0.000025  0.002023  0.000031 -0.012873  0.000034  0.000452
  3C   2px        0.000356  0.005603 -0.002872 -0.035710  0.014070  0.044007
  3C   2py       -0.000567  0.003517  0.004597 -0.022168 -0.022843 -0.070813
  4C   1s         0.102538 -0.120336 -0.074907 -0.097569 -0.047997 -0.010447
  4C   2s        -0.116556  0.131625  0.080080  0.101924  0.049022  0.007324
  4C   3s        -0.209144  0.293840  0.220294  0.353044  0.171450  0.055874
  4C   1pz       -0.014236 -0.001446  0.017682  0.002265 -0.038400 -0.040233
  4C   1px       -0.018813 -0.038065  0.087033  0.060186 -0.172134 -0.052448
  4C   1py       -0.059123  0.054422 -0.032866 -0.086010  0.043227 -0.168242
  4C   2pz       -0.005511  0.003650  0.008060  0.004810 -0.012916 -0.031435
  4C   2px       -0.009954  0.003539  0.018467  0.023893 -0.061676 -0.048852
  4C   2py       -0.018464  0.017318  0.020544 -0.009285  0.020844 -0.118301
  5C   1s         0.102552 -0.120364  0.074877  0.097842 -0.047446 -0.010405
  5C   2s        -0.116569  0.131653 -0.080044 -0.102203  0.048452  0.007278
  5C   3s        -0.209238  0.294002 -0.220245 -0.354058  0.169449  0.055722
  5C   1pz       -0.014635 -0.000790 -0.016929 -0.000969 -0.037136 -0.041409
  5C   1px       -0.061259  0.031945 -0.008942  0.050716 -0.036940 -0.173811
  5C   1py        0.009184 -0.058231 -0.092758 -0.091071 -0.174348  0.027077
  5C   2pz       -0.005611  0.003766 -0.008130 -0.004507 -0.012465 -0.032215
  5C   2px       -0.020953  0.017095 -0.026542 -0.002151 -0.008589 -0.127516
  5C   2py       -0.000788 -0.004482 -0.007545 -0.025223 -0.064833  0.008267
  6H   1s        -0.026078  0.000012 -0.063599  0.000264 -0.088831  0.104620
  6H   2s         0.010430 -0.000001 -0.005533  0.000111 -0.038121  0.051251
  7H   1s        -0.033243 -0.055963 -0.038575  0.088655  0.054294  0.098893
  7H   2s         0.007837 -0.001267 -0.007508  0.029254  0.017211  0.035491
  8H   1s        -0.033268 -0.056016  0.038582 -0.089003  0.053819  0.098964
  8H   2s         0.007841 -0.001264  0.007502 -0.029334  0.017031  0.035492
  9H   1s        -0.026078  0.000002  0.063597  0.000228 -0.088838  0.104588
  9H   2s         0.010431  0.000001  0.005532  0.000094 -0.038127  0.051240
 10H   1s        -0.033236  0.055952  0.038585  0.088596  0.054318  0.098899
 10H   2s         0.007837  0.001270  0.007502  0.029232  0.017227  0.035492
 11H   1s        -0.033239  0.055965 -0.038563 -0.088890  0.053818  0.098833
 11H   2s         0.007835  0.001270 -0.007495 -0.029311  0.017041  0.035464
                     12        13        14        15        16        17   
                  -0.86850  -0.86670  -0.84041  -0.80928  -0.76213  -0.72619
                   1.00000   1.00000   1.00000   1.00000   1.00000   1.00000
                  --------  --------  --------  --------  --------  --------
  0C   1s         0.070329  0.000370  0.000045 -0.004332  0.000025 -0.000012
  0C   2s        -0.074702 -0.000386 -0.000048  0.001180 -0.000029  0.000017
  0C   3s        -0.205675 -0.001148 -0.000135  0.077046 -0.000060  0.000040
  0C   1pz        0.000527 -0.067648 -0.025547 -0.001405  0.139258 -0.064173
  0C   1px        0.025140 -0.187259 -0.070655 -0.146353 -0.036909 -0.177480
  0C   1py       -0.038318 -0.117159 -0.044189  0.235494 -0.021763 -0.110534
  0C   2pz        0.000489 -0.031484 -0.013155 -0.001118  0.113571 -0.035868
  0C   2px        0.038237 -0.087013 -0.036322 -0.119889 -0.030152 -0.099138
  0C   2py       -0.060516 -0.054761 -0.022807  0.192898 -0.017547 -0.061622
  1C   1s        -0.057324  0.004323  0.011968  0.022098 -0.000001  0.002856
  1C   2s         0.060103 -0.004449 -0.015858 -0.025035 -0.000000 -0.003414
  1C   3s         0.221150 -0.029862  0.000012 -0.071440  0.000001 -0.015509
  1C   1pz        0.040361  0.033626  0.057610  0.035512  0.196847  0.063445
  1C   1px        0.083140  0.211918  0.096281  0.097528 -0.051436  0.183266
  1C   1py        0.117607 -0.140578  0.205545  0.062751 -0.031017  0.098121
  1C   2pz        0.043119  0.019334  0.049581  0.028269  0.187989  0.074816
  1C   2px        0.091702  0.123820  0.087450  0.069018 -0.049204  0.188158
  1C   2py        0.120888 -0.084127  0.169255  0.064485 -0.029616  0.162376
  2C   1s         0.057233  0.004921  0.012057 -0.022111 -0.000024 -0.002864
  2C   2s        -0.060010 -0.005070 -0.015947  0.025046  0.000028  0.003415
  2C   3s        -0.220747 -0.032181 -0.000339  0.071496  0.000091  0.015600
  2C   1pz       -0.041245  0.030889  0.058769 -0.035566  0.196843 -0.063581
  2C   1px       -0.141964 -0.033912  0.226474 -0.099347 -0.051898 -0.168663
  2C   1py       -0.025436  0.252290 -0.004147 -0.059878 -0.030923 -0.121330
  2C   2pz       -0.043846  0.017533  0.050468 -0.028492  0.187994 -0.075476
  2C   2px       -0.148756 -0.022254  0.190058 -0.088318 -0.049734 -0.228394
  2C   2py       -0.030620  0.148188  0.003925 -0.033532 -0.029569 -0.097419
  3C   1s        -0.070339 -0.000381 -0.000039  0.004329  0.000027  0.000033
  3C   2s         0.074710  0.000415  0.000047 -0.001177 -0.000031 -0.000046
  3C   3s         0.205737  0.001143  0.000083 -0.077030 -0.000066 -0.000093
  3C   1pz        0.000687 -0.067632 -0.025586 -0.001452  0.139351  0.063955
  3C   1px        0.025357 -0.187267 -0.070852 -0.146417 -0.036378  0.177455
  3C   1py       -0.038300 -0.117098 -0.044007  0.235415 -0.022046  0.110718
  3C   2pz        0.000593 -0.031474 -0.013164 -0.001222  0.113622  0.035664
  3C   2px        0.038355 -0.087027 -0.036480 -0.119924 -0.029578  0.099078
  3C   2py       -0.060520 -0.054714 -0.022627  0.192841 -0.018153  0.061845
  4C   1s         0.057347 -0.004317 -0.011974 -0.022078 -0.000004  0.002796
  4C   2s        -0.060127  0.004451  0.015871  0.025021  0.000002 -0.003359
  4C   3s        -0.221208  0.029805 -0.000013  0.071279  0.000014 -0.015268
  4C   1pz        0.040257  0.033484  0.057602  0.035466  0.196706 -0.063634
  4C   1px        0.082978  0.211939  0.096472  0.097628 -0.051871 -0.183198
  4C   1py        0.117543 -0.140632  0.205487  0.062859 -0.030769 -0.098054
  4C   2pz        0.043023  0.019234  0.049559  0.028261  0.187868 -0.075040
  4C   2px        0.091563  0.123786  0.087541  0.069073 -0.049467 -0.188068
  4C   2py        0.120805 -0.084196  0.169229  0.064559 -0.029426 -0.162329
  5C   1s        -0.057271 -0.004927 -0.012036  0.022089 -0.000021 -0.002807
  5C   2s         0.060041  0.005083  0.015938 -0.025034  0.000022  0.003370
  5C   3s         0.220874  0.032185  0.000206 -0.071324  0.000090  0.015346
  5C   1pz       -0.041314  0.030735  0.058814 -0.035581  0.196868  0.063256
  5C   1px       -0.141909 -0.033924  0.226406 -0.099470 -0.051436  0.168801
  5C   1py       -0.025360  0.252366 -0.004044 -0.059954 -0.031079  0.121342
  5C   2pz       -0.043903  0.017425  0.050520 -0.028535  0.188090  0.075203
  5C   2px       -0.148685 -0.022274  0.189962 -0.088394 -0.048988  0.228546
  5C   2py       -0.030563  0.148196  0.003973 -0.033569 -0.029623  0.097425
  6H   1s        -0.092122 -0.000534 -0.000103  0.180530  0.000205  0.000113
  6H   2s        -0.035729 -0.000213 -0.000039  0.103722  0.000047  0.000065
  7H   1s         0.137061 -0.015765  0.128498  0.043806  0.000042  0.128237
  7H   2s         0.050069 -0.008986  0.061859  0.023480  0.000045  0.062519
  8H   1s        -0.137017 -0.017193  0.128334 -0.043863 -0.000161 -0.128219
  8H   2s        -0.049993 -0.009524  0.061767 -0.023501 -0.000016 -0.062469
  9H   1s         0.092190  0.000484 -0.000057 -0.180507  0.000158 -0.000047
  9H   2s         0.035768  0.000193 -0.000033 -0.103712  0.000012 -0.000033
 10H   1s        -0.136986  0.015796 -0.128505 -0.043905 -0.000026  0.128272
 10H   2s        -0.050044  0.008979 -0.061864 -0.023536 -0.000019  0.062536
 11H   1s         0.136990  0.017204 -0.128293  0.043957 -0.000202 -0.128302
 11H   2s         0.050027  0.009526 -0.061784  0.023564 -0.000054 -0.062563
                     18        19        20        21        22        23   
                  -0.72187  -0.63011  -0.55437  -0.13395  -0.06388   0.05949
                   1.00000   1.00000   1.00000   0.00000   0.00000   0.00000
                  --------  --------  --------  --------  --------  --------
  0C   1s         0.007760 -0.000009  0.000054  0.000009 -0.000060  0.034840
  0C   2s        -0.009317  0.000008 -0.000071 -0.000010  0.000042 -0.024794
  0C   3s        -0.027322  0.000066 -0.000138 -0.000038  0.000406 -0.398859
  0C   1pz        0.001241 -0.000167  0.228872  0.000130 -0.266685  0.000288
  0C   1px        0.110011  0.000058 -0.060174 -0.000099  0.070087  0.036560
  0C   1py       -0.177046 -0.000012 -0.036024 -0.000042  0.041995 -0.058709
  0C   2pz        0.001529 -0.000152  0.259758  0.000246 -0.590871  0.001120
  0C   2px        0.144317  0.000112 -0.068301 -0.000224  0.155292  0.145685
  0C   2py       -0.232231 -0.000005 -0.040874 -0.000158  0.093043 -0.234041
  1C   1s        -0.003514 -0.000013 -0.000026 -0.000038  0.000006  0.046643
  1C   2s         0.004709  0.000019  0.000031  0.000044 -0.000035 -0.030692
  1C   3s         0.008706  0.000009  0.000093  0.000152  0.000097 -0.582845
  1C   1pz       -0.005232  0.235679  0.159822  0.244799  0.119869 -0.020606
  1C   1px       -0.123240 -0.062028 -0.042016 -0.064366 -0.031472 -0.031677
  1C   1py        0.171178 -0.037024 -0.025158 -0.038537 -0.018821 -0.078169
  1C   2pz        0.012811  0.258041  0.199532  0.466182  0.258580 -0.080542
  1C   2px       -0.051634 -0.067850 -0.052445 -0.122680 -0.067927 -0.124343
  1C   2py        0.166035 -0.040549 -0.031429 -0.073230 -0.040648 -0.304630
  2C   1s        -0.003503 -0.000037  0.000028  0.000058  0.000000  0.046599
  2C   2s         0.004694  0.000043 -0.000035 -0.000058 -0.000034 -0.030654
  2C   3s         0.008695  0.000146 -0.000082 -0.000315  0.000173 -0.582560
  2C   1pz       -0.003190  0.235946 -0.159596 -0.244924  0.119598 -0.021007
  2C   1px        0.098900 -0.061922  0.041886  0.064319 -0.031334 -0.083995
  2C   1py       -0.186374 -0.037266  0.025164  0.038626 -0.018808  0.006015
  2C   2pz        0.014403  0.258355 -0.199275 -0.466427  0.257933 -0.082137
  2C   2px        0.125819 -0.067841  0.052330  0.122367 -0.067651 -0.327812
  2C   2py       -0.119770 -0.040756  0.031374  0.073690 -0.040624  0.022516
  3C   1s         0.007752  0.000013 -0.000060 -0.000006 -0.000068  0.034853
  3C   2s        -0.009307 -0.000014  0.000079  0.000013  0.000053 -0.024812
  3C   3s        -0.027314 -0.000059  0.000158 -0.000032  0.000399 -0.398853
  3C   1pz       -0.000867  0.000023 -0.228862  0.000267 -0.266693 -0.000428
  3C   1px       -0.110041  0.000000  0.060163 -0.000018  0.070081 -0.036451
  3C   1py        0.177053  0.000017  0.036040  0.000003  0.041952  0.058727
  3C   2pz       -0.001258  0.000032 -0.259755  0.000467 -0.590883 -0.001757
  3C   2px       -0.144390  0.000038  0.068250  0.000076  0.155314 -0.145506
  3C   2py        0.232197  0.000032  0.040895  0.000013  0.092949  0.234080
  4C   1s        -0.003482 -0.000003  0.000016 -0.000015  0.000017  0.046620
  4C   2s         0.004681  0.000000 -0.000020  0.000017 -0.000046 -0.030673
  4C   3s         0.008534  0.000053 -0.000052  0.000096  0.000046 -0.582668
  4C   1pz        0.005630 -0.235736 -0.159898  0.244719  0.119909  0.020610
  4C   1px        0.123004  0.061832  0.041925 -0.064225 -0.031503  0.031734
  4C   1py       -0.171347  0.037075  0.025134 -0.038462 -0.018890  0.078150
  4C   2pz       -0.012345 -0.258063 -0.199596  0.466047  0.258754  0.080532
  4C   2px        0.051358  0.067724  0.052365 -0.122184 -0.067880  0.124406
  4C   2py       -0.166231  0.040583  0.031352 -0.073319 -0.040699  0.304550
  5C   1s        -0.003486  0.000026 -0.000020  0.000038 -0.000001  0.046629
  5C   2s         0.004678 -0.000031  0.000025 -0.000033 -0.000026 -0.030679
  5C   3s         0.008595 -0.000104  0.000064 -0.000275  0.000154 -0.582742
  5C   1pz        0.003505 -0.235950  0.159641 -0.244827  0.119627  0.021217
  5C   1px       -0.099203  0.062018 -0.041933  0.064327 -0.031477  0.084063
  5C   1py        0.186231  0.037097 -0.025073  0.038470 -0.018848 -0.006007
  5C   2pz       -0.014046 -0.258343  0.199300 -0.466229  0.258070  0.082934
  5C   2px       -0.126175  0.067865 -0.052328  0.122528 -0.067869  0.327894
  5C   2py        0.119588  0.040631 -0.031351  0.073161 -0.040605 -0.022515
  6H   1s        -0.163216 -0.000023 -0.000003  0.000015 -0.000076  0.049699
  6H   2s        -0.088932 -0.000017 -0.000036  0.000054 -0.000161  0.619452
  7H   1s         0.072707 -0.000002 -0.000001 -0.000037 -0.000041  0.058141
  7H   2s         0.038483  0.000004  0.000011 -0.000090 -0.000108  0.774814
  8H   1s         0.072632  0.000002 -0.000003  0.000089 -0.000058  0.058124
  8H   2s         0.038439  0.000031 -0.000028  0.000218 -0.000147  0.774661
  9H   1s        -0.163222 -0.000032  0.000010  0.000023 -0.000090  0.049689
  9H   2s        -0.088943 -0.000032  0.000046  0.000040 -0.000196  0.619348
 10H   1s         0.072771  0.000021  0.000009  0.000008 -0.000009  0.058147
 10H   2s         0.038514  0.000019  0.000006  0.000024  0.000002  0.774714
 11H   1s         0.072740 -0.000006 -0.000024  0.000062 -0.000030  0.058192
 11H   2s         0.038522 -0.000031 -0.000009  0.000140 -0.000080  0.775101
                     24        25        26        27        28        29   
                   0.12000   0.12443   0.13589   0.15979   0.17861   0.18431
                   0.00000   0.00000   0.00000   0.00000   0.00000   0.00000
                  --------  --------  --------  --------  --------  --------
  0C   1s        -0.000033  0.000124 -0.024383 -0.000153  0.118951 -0.069396
  0C   2s         0.000009  0.000032 -0.004821  0.000068 -0.045421  0.066332
  0C   3s         0.000482 -0.002647  0.609061  0.002091 -1.799720  0.431624
  0C   1pz        0.013666  0.221857  0.000032 -0.021900  0.000120 -0.000318
  0C   1px        0.033941 -0.058091 -0.090678 -0.060813  0.029653 -0.042668
  0C   1py        0.021234 -0.035617  0.145242 -0.038053 -0.048021  0.068471
  0C   2pz        0.005498  0.616258  0.000353 -0.131607  0.000431 -0.004646
  0C   2px        0.004565 -0.160698 -0.252486 -0.365188  0.143510 -0.493898
  0C   2py        0.003014 -0.098520  0.404180 -0.228012 -0.233007  0.794043
  1C   1s        -0.033989  0.000374 -0.031998 -0.095747 -0.052130  0.062714
  1C   2s         0.008257 -0.000114  0.017369  0.040240  0.021820 -0.066014
  1C   3s         0.630529 -0.006210  0.436535  1.466185  0.820313 -0.376020
  1C   1pz        0.042754 -0.208439  0.020363  0.019627 -0.003341 -0.009955
  1C   1px        0.088355  0.054034  0.015432  0.064002 -0.041118 -0.034720
  1C   1py        0.132545  0.031566  0.109577  0.018821  0.047601 -0.005612
  1C   2pz        0.136170 -0.544282  0.113858  0.101559 -0.045192 -0.193433
  1C   2px        0.245413  0.140461  0.190845  0.354929 -0.346984 -0.407234
  1C   2py        0.477112  0.081053  0.422157  0.056783  0.292240 -0.549309
  2C   1s        -0.033890  0.000022  0.032021  0.095933 -0.051690 -0.062915
  2C   2s         0.008197  0.000013 -0.017374 -0.040318  0.021520  0.066089
  2C   3s         0.629564 -0.001229 -0.437198 -1.469340  0.815303  0.379613
  2C   1pz        0.045704  0.207934 -0.021204 -0.019424 -0.002807  0.009769
  2C   1px        0.157008 -0.055082 -0.105107 -0.045257  0.024305  0.020468
  2C   1py        0.020531 -0.032913  0.034437 -0.049065 -0.058216  0.028519
  2C   2pz        0.144690  0.542595 -0.116426 -0.099935 -0.041691  0.195679
  2C   2px        0.533808 -0.143758 -0.462928 -0.208130  0.106235  0.672227
  2C   2py        0.009092 -0.085355  0.014694 -0.292653 -0.441916  0.121943
  3C   1s        -0.000033 -0.000141  0.024446 -0.000200  0.118719  0.069756
  3C   2s         0.000014 -0.000020  0.004788  0.000079 -0.045212 -0.066460
  3C   3s         0.000432  0.002804 -0.609881  0.003000 -1.798042 -0.437183
  3C   1pz        0.011152 -0.221985 -0.001756  0.021868 -0.000452 -0.000571
  3C   1px        0.034652  0.058473 -0.090099  0.060904 -0.029650 -0.042725
  3C   1py        0.021689  0.034176  0.145662  0.037843  0.047642  0.068616
  3C   2pz       -0.001282 -0.616185 -0.005150  0.131513 -0.002113 -0.005127
  3C   2px        0.006476  0.163003 -0.250606  0.365667 -0.142710 -0.494471
  3C   2py        0.004221  0.095221  0.405604  0.227520  0.229849  0.794594
  4C   1s         0.033937 -0.000296  0.031832 -0.095797 -0.051894 -0.062903
  4C   2s        -0.008229  0.000071 -0.017295  0.040259  0.021619  0.066099
  4C   3s        -0.629771  0.005252 -0.434163  1.467127  0.818180  0.378738
  4C   1pz        0.045071  0.207853  0.022035 -0.019777  0.003355 -0.009981
  4C   1px        0.087615 -0.055261  0.014997 -0.064075  0.041171 -0.034612
  4C   1py        0.132090 -0.033880  0.109365 -0.019081 -0.047556 -0.005759
  4C   2pz        0.141954  0.542223  0.118592 -0.102326  0.045786 -0.193129
  4C   2px        0.243251 -0.144633  0.189338 -0.355164  0.347543 -0.406531
  4C   2py        0.475922 -0.089582  0.421680 -0.057911 -0.290394 -0.550212
  5C   1s         0.033958 -0.000088 -0.031864  0.095929 -0.051816  0.062759
  5C   2s        -0.008226  0.000021  0.017301 -0.040331  0.021717 -0.066030
  5C   3s        -0.630262  0.002079  0.434748 -1.468892  0.814919 -0.376633
  5C   1pz        0.043452 -0.208321 -0.022962  0.019609  0.002731  0.009918
  5C   1px        0.157635  0.054204 -0.104674  0.045295 -0.024271  0.020348
  5C   1py        0.020899  0.032539  0.034789  0.048987  0.058058  0.028697
  5C   2pz        0.139057 -0.543616 -0.121359  0.100888  0.040944  0.195908
  5C   2px        0.535246  0.141248 -0.461513  0.208255 -0.107980  0.671725
  5C   2py        0.010024  0.085422  0.016094  0.292448  0.440969  0.123709
  6H   1s        -0.000002  0.000214 -0.030006  0.000001  0.007669 -0.047113
  6H   2s        -0.000419  0.003718 -0.931860 -0.000508  1.080002 -1.225912
  7H   1s        -0.040951  0.000406 -0.030669 -0.011597  0.003902  0.030908
  7H   2s        -1.010601  0.009235 -0.783273 -0.886211 -0.439637  0.866825
  8H   1s        -0.040902 -0.000028  0.030676  0.011568  0.004010 -0.030834
  8H   2s        -1.009738  0.002389  0.784232  0.888310 -0.434822 -0.868691
  9H   1s         0.000008 -0.000234  0.030019 -0.000040  0.007520  0.047133
  9H   2s         0.000048 -0.003897  0.932539 -0.001993  1.075785  1.229126
 10H   1s         0.040925 -0.000333  0.030675 -0.011639  0.003956 -0.030881
 10H   2s         1.009614 -0.008437  0.782442 -0.888067 -0.436866 -0.868392
 11H   1s         0.040927 -0.000028 -0.030679  0.011598  0.003857  0.030844
 11H   2s         1.009855 -0.003067 -0.782915  0.888358 -0.436517  0.866871
                     30        31        32        33        34        35   
                   0.27092   0.28013   0.28666   0.29565   0.57050   0.57509
                   0.00000   0.00000   0.00000   0.00000   0.00000   0.00000
                  --------  --------  --------  --------  --------  --------
  0C   1s         0.000049  0.071278  0.069522  0.000284  0.120902  0.001248
  0C   2s        -0.000001 -0.005410 -0.001301 -0.000017 -0.029908 -0.000301
  0C   3s        -0.000806 -1.439287 -1.690550 -0.006013 -2.668672 -0.028107
  0C   1pz        0.007940 -0.001452  0.000022  0.069734 -0.001402  0.064466
  0C   1px        0.021782 -0.118038  0.006087  0.192808 -0.100668  0.177655
  0C   1py        0.014047  0.188134 -0.009584  0.121294  0.157484  0.112972
  0C   2pz        0.187002 -0.010540 -0.000492  0.535492 -0.019436  0.800610
  0C   2px        0.516666 -0.826850 -0.021288  1.480220 -1.151329  2.206872
  0C   2py        0.325080  1.315995  0.036801  0.931276  1.803879  1.402288
  1C   1s         0.063584 -0.036313  0.032139  0.055140 -0.116289 -0.000431
  1C   2s        -0.011300  0.009319  0.006908  0.001643  0.029517  0.001211
  1C   3s        -1.254654  0.740223 -0.928842 -1.490516  2.567015 -0.048380
  1C   1pz        0.046863 -0.028894 -0.029359  0.014724 -0.044660  0.035159
  1C   1px        0.068617 -0.054365 -0.177576  0.089445 -0.073496  0.207841
  1C   1py        0.183343 -0.092629  0.109912 -0.056051 -0.161727 -0.124685
  1C   2pz        0.263524 -0.285390 -0.180192  0.181538 -0.543937  0.402859
  1C   2px        0.207618 -0.870433 -1.250961  0.863683 -1.005648  2.289965
  1C   2py        1.327695 -0.358535  0.943456 -0.291320 -1.773333 -1.268708
  2C   1s        -0.063663 -0.036064 -0.032072  0.055200  0.116267  0.000414
  2C   2s         0.011312  0.009290 -0.006891  0.001666 -0.029473 -0.001188
  2C   3s         1.255895  0.734622  0.927153 -1.492329 -2.565883  0.047940
  2C   1pz       -0.048101 -0.029257  0.027498  0.013725  0.045511 -0.033069
  2C   1px       -0.194839 -0.106438 -0.020209 -0.010518  0.177362  0.019871
  2C   1py        0.019167 -0.008190  0.208297  0.104889 -0.005022 -0.242060
  2C   2pz       -0.274346 -0.283098  0.165611  0.174527  0.553452 -0.379862
  2C   2px       -1.283136 -0.701204 -0.293489  0.122047  2.031914  0.126131
  2C   2py        0.397788 -0.626792  1.541738  0.902600  0.120605 -2.617998
  3C   1s         0.000163  0.071325 -0.069480  0.000377 -0.120899 -0.001210
  3C   2s        -0.000042 -0.005409  0.001297 -0.000050  0.029907  0.000274
  3C   3s        -0.002812 -1.440450  1.689692 -0.008463  2.668640  0.028945
  3C   1pz       -0.007935  0.000822  0.000212  0.069797 -0.000517 -0.064478
  3C   1px       -0.021729  0.116481  0.006316  0.193656 -0.096699 -0.179566
  3C   1py       -0.014024 -0.189089 -0.009613  0.119895  0.159924 -0.109876
  3C   2pz       -0.186894  0.005852  0.000839  0.535754 -0.002441 -0.800822
  3C   2px       -0.516158  0.815968 -0.020906  1.487104 -1.109053 -2.229762
  3C   2py       -0.324624 -1.322885  0.035812  0.920656  1.830249 -1.365334
  4C   1s         0.063553 -0.035852 -0.032115 -0.055488  0.116296  0.001874
  4C   2s        -0.011286  0.009317 -0.006911 -0.001570 -0.029509  0.000622
  4C   3s        -1.254429  0.728683  0.927955  1.498411 -2.567591 -0.099905
  4C   1pz       -0.046776  0.028698 -0.029364  0.014862 -0.044051 -0.035702
  4C   1px       -0.068419  0.053770 -0.177496  0.089902 -0.069352 -0.209316
  4C   1py       -0.183375  0.093067  0.109802 -0.055278 -0.164121  0.121420
  4C   2pz       -0.262904  0.283662 -0.180130  0.183154 -0.535161 -0.412262
  4C   2px       -0.206224  0.865144 -1.249949  0.871635 -0.961196 -2.311692
  4C   2py       -1.328048  0.360484  0.942179 -0.288376 -1.798980  1.233979
  5C   1s        -0.063685 -0.035647  0.032011 -0.055515 -0.116279 -0.001900
  5C   2s         0.011302  0.009287  0.006900 -0.001600  0.029476 -0.000613
  5C   3s         1.257322  0.724279 -0.925510  1.499388  2.566682  0.099539
  5C   1pz        0.048123  0.029110  0.027522  0.013958  0.045333  0.033620
  5C   1px        0.194699  0.106579 -0.019995 -0.009814  0.177528 -0.016312
  5C   1py       -0.019298  0.007181  0.208186  0.104926 -0.009829  0.242022
  5C   2pz        0.274091  0.281424  0.165945  0.176053  0.545092  0.389474
  5C   2px        1.282496  0.700669 -0.291777  0.127098  2.035282 -0.085434
  5C   2py       -0.398553  0.619205  1.541027  0.908555  0.069365  2.622181
  6H   1s         0.000077 -0.011836 -0.110114  0.000048  0.112796  0.001119
  6H   2s        -0.002196 -1.060159  0.336901 -0.004521 -0.872778 -0.008799
  7H   1s        -0.008251  0.008284 -0.051752 -0.105161 -0.140017 -0.014458
  7H   2s        -0.878622  0.507335  0.014274  0.173358  0.881417  0.008591
  8H   1s         0.008247  0.008186  0.051649 -0.105220  0.140142  0.014223
  8H   2s         0.880411  0.505297 -0.013685  0.172072 -0.881314 -0.008364
  9H   1s        -0.000056 -0.011909  0.110107 -0.000141 -0.112759 -0.001080
  9H   2s        -0.001300 -1.059949 -0.337645 -0.003279  0.872760  0.008647
 10H   1s        -0.008289  0.007461  0.051718  0.105240  0.140195 -0.011620
 10H   2s        -0.878386  0.508957 -0.014651 -0.169461 -0.881659 -0.008868
 11H   1s         0.008392  0.007417 -0.051632  0.105265 -0.140303  0.011304
 11H   2s         0.879286  0.506673  0.014971 -0.168886  0.881367  0.009174
                     36        37        38        39        40        41   
                   0.65720   0.67076   0.70537   0.76229   0.77076   0.78851
                   0.00000   0.00000   0.00000   0.00000   0.00000   0.00000
                  --------  --------  --------  --------  --------  --------
  0C   1s        -0.000026  0.002402  0.000039  0.066964 -0.000180  0.000014
  0C   2s         0.000399 -0.077840 -0.000061 -0.040223 -0.000056 -0.000036
  0C   3s         0.000642 -0.112461 -0.000104  0.183607 -0.001883  0.000065
  0C   1pz       -0.099893 -0.001739  0.307229 -0.000956  0.158791 -0.000535
  0C   1px       -0.276283 -0.146616 -0.080763 -0.116363  0.440248 -0.000067
  0C   1py       -0.173373  0.234180 -0.048249  0.189055  0.273910 -0.000007
  0C   2pz        0.120905  0.001751 -0.103204  0.000081 -0.097759  0.000333
  0C   2px        0.334753  0.129651  0.027175  0.054972 -0.271414  0.000208
  0C   2py        0.209315 -0.205316  0.016131 -0.090649 -0.168096  0.000180
  1C   1s         0.002276  0.009922 -0.000022 -0.030931  0.052181 -0.000037
  1C   2s         0.014963 -0.081813  0.000081 -0.015459 -0.016189 -0.000026
  1C   3s         0.012708 -0.071594  0.000002 -0.088460  0.234575 -0.000184
  1C   1pz        0.063184  0.084335  0.462864 -0.088257 -0.002308  0.519644
  1C   1px        0.359324  0.171553 -0.121878 -0.441278 -0.173813 -0.136706
  1C   1py       -0.198955  0.249521 -0.072793  0.177629  0.275007 -0.081711
  1C   2pz       -0.077586 -0.091591 -0.341672  0.074109  0.040492 -0.440965
  1C   2px       -0.440336 -0.183849  0.090041  0.411200  0.375609  0.116152
  1C   2py        0.242386 -0.275005  0.053745 -0.217140 -0.370126  0.069276
  2C   1s         0.002231  0.009968 -0.000038 -0.031220 -0.051982 -0.000012
  2C   2s         0.014994 -0.081822  0.000101 -0.015367  0.016229 -0.000043
  2C   3s         0.013605 -0.071789  0.000038 -0.090128 -0.234134 -0.000106
  2C   1pz        0.059550  0.085632  0.463198 -0.084405 -0.000559  0.520317
  2C   1px       -0.019891  0.299377 -0.121651 -0.036513 -0.169287 -0.136338
  2C   1py        0.410833  0.043892 -0.073139 -0.473316  0.280416 -0.082096
  2C   2pz       -0.073300 -0.093243 -0.342154  0.070242 -0.035646 -0.441980
  2C   2px        0.022283 -0.327883  0.089851 -0.012005  0.165978  0.115777
  2C   2py       -0.502524 -0.045435  0.053942  0.464621 -0.503578  0.069862
  3C   1s         0.000042  0.002412  0.000046  0.066969 -0.000221 -0.000024
  3C   2s         0.000375 -0.077820 -0.000061 -0.040247  0.000270  0.000049
  3C   3s        -0.000136 -0.112941 -0.000158  0.183675  0.001264 -0.000155
  3C   1pz       -0.099882  0.001056  0.307194  0.000381 -0.158750 -0.000088
  3C   1px       -0.277159  0.145142 -0.080731  0.115592 -0.440209 -0.000280
  3C   1py       -0.171897 -0.235088 -0.048498 -0.189578 -0.273911  0.000046
  3C   2pz        0.120964 -0.001110 -0.103190  0.000295  0.097690  0.000370
  3C   2px        0.335903 -0.127613  0.027085 -0.053425  0.270347  0.000384
  3C   2py        0.207829  0.206055  0.016353  0.091705  0.169570 -0.000072
  4C   1s        -0.002344  0.009876 -0.000012 -0.030891  0.052268  0.000031
  4C   2s        -0.014260 -0.082046  0.000074 -0.015165 -0.016061  0.000071
  4C   3s        -0.012351 -0.071181 -0.000024 -0.087833  0.232770  0.000283
  4C   1pz        0.063580 -0.083958  0.462735  0.087661  0.002386 -0.519849
  4C   1px        0.360542 -0.169086 -0.121251  0.440920  0.174339  0.136280
  4C   1py       -0.197222 -0.250839 -0.072824 -0.177222 -0.275217  0.081754
  4C   2pz       -0.078042  0.091144 -0.341587 -0.073458 -0.040973  0.441086
  4C   2px       -0.441371  0.181139  0.089449 -0.410435 -0.377861 -0.115446
  4C   2py        0.240552  0.276919  0.053798  0.216636  0.369269 -0.069371
  5C   1s        -0.002292  0.009934 -0.000026 -0.031168 -0.052071  0.000006
  5C   2s        -0.014279 -0.082092  0.000088 -0.015060  0.016090  0.000076
  5C   3s        -0.013221 -0.072049 -0.000023 -0.089446 -0.232713  0.000138
  5C   1pz        0.059888 -0.085121  0.462998  0.083632  0.000272 -0.520348
  5C   1px       -0.017893 -0.299488 -0.121651  0.036642  0.169308  0.137007
  5C   1py        0.411166 -0.041139 -0.072675  0.472885 -0.280811  0.081663
  5C   2pz       -0.073760  0.092635 -0.341973 -0.069411  0.036216  0.441908
  5C   2px        0.020337  0.327221  0.089850  0.012204 -0.164102 -0.116420
  5C   2py       -0.503039  0.042123  0.053725 -0.463781  0.504944 -0.069257
  6H   1s        -0.000702  0.270198  0.000198  0.286217 -0.000974  0.000008
  6H   2s         0.000309 -0.105031  0.000022 -0.111391  0.000221 -0.000078
  7H   1s         0.016823  0.304784 -0.000034 -0.122125  0.247847 -0.000237
  7H   2s         0.000707 -0.064880 -0.000055  0.053402 -0.073914  0.000110
  8H   1s         0.016641  0.304931 -0.000121 -0.123497 -0.246956 -0.000171
  8H   2s         0.001151 -0.064648 -0.000045  0.053576  0.073360  0.000037
  9H   1s        -0.000723  0.270244  0.000236  0.286201 -0.000596 -0.000086
  9H   2s        -0.000144 -0.105224  0.000006 -0.111372  0.000544  0.000018
 10H   1s        -0.018692  0.304456  0.000050 -0.121558  0.248063  0.000162
 10H   2s        -0.000166 -0.064676 -0.000026  0.053222 -0.074602 -0.000082
 11H   1s        -0.018439  0.304545 -0.000058 -0.122875 -0.247336  0.000100
 11H   2s        -0.000692 -0.065037 -0.000052  0.053525  0.074385 -0.000053
                     42        43        44        45        46        47   
                   0.82739   0.84651   0.84693   0.85329   0.89094   0.90241
                   0.00000   0.00000   0.00000   0.00000   0.00000   0.00000
                  --------  --------  --------  --------  --------  --------
  0C   1s        -0.000108  0.000812  0.039833 -0.000178  0.000023 -0.000649
  0C   2s        -0.000716  0.003418  0.167293 -0.001019 -0.001769 -0.336764
  0C   3s         0.000477  0.003332  0.179764 -0.000200  0.000264  0.094179
  0C   1pz       -0.481896 -0.000335 -0.001237  0.169461  0.685795 -0.004472
  0C   1px        0.126582  0.000140  0.006401  0.468618 -0.180601 -0.107282
  0C   1py        0.076516 -0.000024 -0.002444  0.292454 -0.107148  0.174240
  0C   2pz        0.241677 -0.000011  0.000735 -0.182885 -0.841443  0.004400
  0C   2px       -0.063084 -0.000271  0.013489 -0.505970  0.220797  0.002483
  0C   2py       -0.039200 -0.000743 -0.028577 -0.315809  0.132580 -0.006796
  1C   1s        -0.000064  0.000298  0.014162  0.031706  0.000013 -0.000999
  1C   2s        -0.000195  0.001924  0.093336  0.170657 -0.001822 -0.360820
  1C   3s        -0.001695  0.004130  0.174269  0.076250  0.001353  0.230879
  1C   1pz       -0.396576  0.523927 -0.090206  0.031270 -0.226324  0.067222
  1C   1px        0.105621 -0.146769 -0.423169  0.200175  0.060327  0.125605
  1C   1py        0.061215 -0.078002  0.216271 -0.136946  0.036723  0.209998
  1C   2pz        0.490394 -0.718920  0.097072 -0.051421  0.353023 -0.047708
  1C   2px       -0.130185  0.199333  0.524780 -0.247837 -0.093736 -0.102830
  1C   2py       -0.074684  0.105237 -0.371916  0.087534 -0.056293 -0.119274
  2C   1s         0.000084 -0.000254 -0.013800  0.031832  0.000027 -0.000990
  2C   2s         0.000369 -0.001924 -0.091395  0.171779 -0.001853 -0.360888
  2C   3s         0.001596 -0.004043 -0.173006  0.079080  0.001631  0.230553
  2C   1pz        0.395992 -0.523845  0.086441  0.028534 -0.225932  0.068455
  2C   1px       -0.103447  0.137643 -0.007506 -0.034303  0.060685  0.243318
  2C   1py       -0.063937  0.092933  0.478625  0.234736  0.035772  0.020376
  2C   2pz       -0.489950  0.719051 -0.091714 -0.049406  0.352502 -0.048164
  2C   2px        0.126837 -0.186419  0.101467 -0.033419 -0.093713 -0.151091
  2C   2py        0.079301 -0.126420 -0.639064 -0.254121 -0.055859 -0.039447
  3C   1s         0.000108 -0.000820 -0.039834  0.000340  0.000027 -0.000652
  3C   2s         0.000712 -0.003547 -0.167266  0.000907 -0.001756 -0.336819
  3C   3s        -0.000533 -0.003321 -0.179836  0.000137  0.000011  0.094607
  3C   1pz        0.482017  0.001160  0.003288  0.168700  0.685808 -0.002383
  3C   1px       -0.126872  0.000349  0.004745  0.469025 -0.179627  0.108875
  3C   1py       -0.075238 -0.000128 -0.003445  0.292488 -0.108515 -0.173398
  3C   2pz       -0.241739 -0.000835 -0.002643 -0.182124 -0.841403  0.004460
  3C   2px        0.064156  0.000313  0.013491 -0.505753  0.221184 -0.004957
  3C   2py        0.036942  0.000030 -0.028520 -0.316166  0.131814  0.005885
  4C   1s         0.000087 -0.000310 -0.014110 -0.031802 -0.000002 -0.001003
  4C   2s         0.000163 -0.002054 -0.093339 -0.170710 -0.001881 -0.360789
  4C   3s         0.001683 -0.003659 -0.173804 -0.076108  0.001473  0.230331
  4C   1pz        0.395915  0.524570 -0.087990  0.030870 -0.227342 -0.064941
  4C   1px       -0.102478 -0.146847 -0.423439  0.201336  0.058911 -0.126010
  4C   1py       -0.063414 -0.078489  0.215555 -0.137008  0.034481 -0.210343
  4C   2pz       -0.489039 -0.719226  0.094331 -0.051003  0.353990  0.043997
  4C   2px        0.126938  0.200531  0.524105 -0.248426 -0.092047  0.103411
  4C   2py        0.079213  0.105741 -0.370129  0.087311 -0.054547  0.119570
  5C   1s        -0.000100  0.000296  0.013745 -0.031913  0.000007 -0.000991
  5C   2s        -0.000339  0.001709  0.091440 -0.171777 -0.001897 -0.360804
  5C   3s        -0.001553  0.003653  0.172687 -0.078961  0.001188  0.230610
  5C   1pz       -0.395164 -0.524481  0.084240  0.028178 -0.226933 -0.065999
  5C   1px        0.104253  0.138114 -0.006724 -0.034051  0.058299 -0.244144
  5C   1py        0.060480  0.092561  0.478494  0.235836  0.035595 -0.020518
  5C   2pz        0.488400  0.719343 -0.088953 -0.048990  0.353384  0.044238
  5C   2px       -0.129804 -0.187519  0.100008 -0.032997 -0.092010  0.153176
  5C   2py       -0.074561 -0.126976 -0.637576 -0.255314 -0.055406  0.039767
  6H   1s        -0.001306  0.008341  0.407734 -0.002165 -0.001782 -0.354479
  6H   2s         0.000729 -0.003300 -0.161119  0.000964  0.000858  0.173666
  7H   1s        -0.000720  0.004515  0.210519  0.373023 -0.001754 -0.378480
  7H   2s        -0.000060 -0.001304 -0.072621 -0.143619  0.001365  0.264201
  8H   1s         0.001006 -0.004169 -0.206172  0.375282 -0.001684 -0.378351
  8H   2s        -0.000017  0.001255  0.070777 -0.143520  0.001331  0.263444
  9H   1s         0.001326 -0.008429 -0.407717  0.002581 -0.001770 -0.354584
  9H   2s        -0.000740  0.003469  0.161166 -0.001293  0.000793  0.173906
 10H   1s         0.000814 -0.004502 -0.210099 -0.373565 -0.001882 -0.378325
 10H   2s        -0.000035  0.001656  0.072639  0.143616  0.001516  0.263941
 11H   1s        -0.001059  0.004130  0.205918 -0.375896 -0.001874 -0.378262
 11H   2s         0.000147 -0.001428 -0.071095  0.144232  0.001334  0.264053
                     48        49        50        51        52        53   
                   0.94890   1.04881   1.07949   1.10225   1.17750   1.18415
                   0.00000   0.00000   0.00000   0.00000   0.00000   0.00000
                  --------  --------  --------  --------  --------  --------
  0C   1s         0.000063  0.016787 -0.000004 -0.028943  0.000053  0.000007
  0C   2s         0.000042  0.038044  0.000054  0.012209 -0.000045 -0.000049
  0C   3s         0.000417 -1.634734 -0.000483  0.453778 -0.000033  0.000403
  0C   1pz        0.577462  0.001634  0.005839 -0.002934  0.155116  0.082552
  0C   1px       -0.151711  0.225679  0.016336 -0.323990  0.430043  0.228540
  0C   1py       -0.091218 -0.362564  0.010353  0.521499  0.267538  0.142588
  0C   2pz       -0.989207 -0.010305 -0.041305  0.007936 -0.867117 -0.223351
  0C   2px        0.259890 -1.074192 -0.114640  0.851242 -2.402783 -0.618719
  0C   2py        0.156631  1.726822 -0.071558 -1.370499 -1.497602 -0.385652
  1C   1s         0.000025 -0.019228 -0.024992  0.015182  0.001693 -0.021381
  1C   2s        -0.000090 -0.002000  0.053113 -0.073357  0.013430  0.156361
  1C   3s         0.001043  1.557056  0.348724 -0.156072 -0.027522 -0.026214
  1C   1pz       -0.340444  0.124825  0.129875 -0.077680  0.080453  0.137638
  1C   1px        0.088850  0.203999  0.217808 -0.145574  0.444005  0.318451
  1C   1py        0.054032  0.453982  0.462453 -0.250314 -0.231501  0.343274
  1C   2pz        0.805286 -0.548984 -0.345414  0.227076 -0.463425 -0.250849
  1C   2px       -0.210432 -0.938571 -0.543587  0.478101 -2.583958 -0.659593
  1C   2py       -0.127987 -1.921635 -1.288909  0.642988  1.376437 -0.492572
  2C   1s        -0.000045  0.019211  0.024992  0.015182 -0.001721 -0.021416
  2C   2s        -0.000003  0.002322 -0.052827 -0.073226 -0.013209  0.156444
  2C   3s        -0.001578 -1.556740 -0.349138 -0.157329  0.027881 -0.026509
  2C   1pz        0.340275 -0.127233 -0.132481 -0.078875 -0.075880  0.139067
  2C   1px       -0.089437 -0.496458 -0.510462 -0.288209  0.012259  0.448606
  2C   1py       -0.052989  0.016963  0.008390 -0.020747 -0.501024  0.135778
  2C   2pz       -0.805066  0.559721  0.353334  0.230119  0.437567 -0.252580
  2C   2px        0.212088  2.134809  1.395089  0.787480 -0.094202 -0.733778
  2C   2py        0.125599 -0.004389 -0.080185  0.147506  2.929507 -0.381024
  3C   1s        -0.000072 -0.016769 -0.000058 -0.028975 -0.000064  0.000031
  3C   2s        -0.000021 -0.037857  0.000055  0.012258 -0.000111 -0.000054
  3C   3s        -0.000408  1.634068  0.001173  0.455748 -0.000121 -0.000226
  3C   1pz       -0.577641  0.002839 -0.005786  0.003280 -0.154979  0.082685
  3C   1px        0.151655  0.225105 -0.015699  0.324396 -0.429201  0.229112
  3C   1py        0.090445 -0.362242 -0.010656 -0.521937 -0.268044  0.143081
  3C   2pz        0.989563 -0.010471  0.041234 -0.008224  0.866712 -0.224678
  3C   2px       -0.259965 -1.072687  0.112551 -0.852909  2.400978 -0.622295
  3C   2py       -0.154569  1.726204  0.073242  1.372508  1.497957 -0.388405
  4C   1s        -0.000006  0.019210 -0.024952  0.015193  0.001725  0.021393
  4C   2s         0.000057  0.002227  0.052889 -0.073532  0.013207 -0.156630
  4C   3s        -0.000962 -1.557972  0.346969 -0.158131 -0.026953  0.025999
  4C   1pz        0.340623  0.124925 -0.129707  0.077628 -0.079916  0.137918
  4C   1px       -0.089992  0.203765 -0.217267  0.146002 -0.443567  0.319513
  4C   1py       -0.053109  0.454270 -0.461982  0.250645  0.231139  0.343354
  4C   2pz       -0.805702 -0.548351  0.344759 -0.227066  0.460756 -0.251684
  4C   2px        0.212501 -0.937506  0.541860 -0.479721  2.582300 -0.664269
  4C   2py        0.125286 -1.922787  1.286874 -0.645009 -1.375542 -0.491755
  5C   1s         0.000032 -0.019225  0.024981  0.015149 -0.001689  0.021374
  5C   2s         0.000040 -0.001985 -0.053080 -0.073465 -0.013414 -0.156611
  5C   3s         0.001483  1.557895 -0.347586 -0.155859  0.026913  0.027052
  5C   1pz       -0.340433 -0.128152  0.132979  0.078852  0.075757  0.139075
  5C   1px        0.089380 -0.496931  0.510423  0.287767 -0.010888  0.448025
  5C   1py        0.053988  0.017230 -0.008317  0.020779  0.500916  0.135164
  5C   2pz        0.805549  0.560461 -0.353794 -0.229403 -0.435677 -0.251723
  5C   2px       -0.210879  2.136427 -1.393491 -0.785224  0.092180 -0.732112
  5C   2py       -0.127626 -0.005493  0.079973 -0.147441 -2.928996 -0.376717
  6H   1s         0.000232  0.154331 -0.000144 -0.454269  0.000720 -0.000220
  6H   2s        -0.000335 -0.914119  0.000240  1.209397 -0.001232  0.000023
  7H   1s         0.000012 -0.197020 -0.387231  0.221909  0.020897 -0.391867
  7H   2s         0.000191  1.089956  1.088436 -0.638995  0.028479  0.890245
  8H   1s        -0.000174  0.196906  0.387291  0.221502 -0.021607 -0.392250
  8H   2s        -0.000166 -1.089347 -1.088585 -0.638700 -0.026952  0.891666
  9H   1s        -0.000221 -0.153818 -0.000397 -0.454526 -0.000675  0.000387
  9H   2s         0.000368  0.913119  0.001594  1.210713  0.000674 -0.000406
 10H   1s        -0.000049  0.197150 -0.386843  0.221997  0.020809  0.392152
 10H   2s        -0.000249 -1.090033  1.086843 -0.640031  0.028225 -0.891445
 11H   1s         0.000220 -0.197231  0.387517  0.221403 -0.020294  0.391830
 11H   2s         0.000160  1.090316 -1.088372 -0.637587 -0.029227 -0.890371
                     54        55        56        57        58        59   
                   1.20289   1.33027   1.33747   1.37093   1.49957   1.50070
                   0.00000   0.00000   0.00000   0.00000   0.00000   0.00000
                  --------  --------  --------  --------  --------  --------
  0C   1s         0.029445 -0.000009 -0.007057 -0.019740  0.000345 -0.013125
  0C   2s        -0.130267 -0.001089 -0.262944  0.544329 -0.004228  0.199752
  0C   3s        -0.411601  0.009111  2.509177 -0.587032 -0.031854  1.091344
  0C   1pz        0.002557  0.104705  0.001679 -0.001132 -0.097333 -0.003200
  0C   1px        0.292095  0.291090  0.249109 -0.137276 -0.267636 -0.096106
  0C   1py       -0.470984  0.179140 -0.403018  0.221152 -0.171551  0.138307
  0C   2pz       -0.004311 -0.673735 -0.000982  0.001383  0.231014  0.018223
  0C   2px       -0.531466 -1.868581 -0.527621  0.204440  0.608678  1.307045
  0C   2py        0.861227 -1.159683  0.863614 -0.330564  0.452581 -2.066490
  1C   1s         0.010895 -0.007296 -0.002438 -0.015663 -0.000028  0.016107
  1C   2s        -0.065054 -0.222089 -0.172311  0.620908  0.420534 -0.327293
  1C   3s         0.046937  2.155560  1.192490 -0.855874 -1.016653 -1.196374
  1C   1pz       -0.014232 -0.066669 -0.097683  0.054864  0.083593 -0.014841
  1C   1px        0.124810 -0.013895 -0.333437  0.089646  0.233361 -0.017033
  1C   1py       -0.298346 -0.400672 -0.064827  0.199479  0.142877 -0.066923
  1C   2pz       -0.082363  0.060719  0.458680 -0.072083 -0.462861  0.529988
  1C   2px       -0.646387 -0.574701  1.942591 -0.096928 -0.971438  0.860944
  1C   2py        0.555222  1.347079 -0.323873 -0.297266 -1.325060  1.930583
  2C   1s        -0.010908 -0.007283  0.002501 -0.015682  0.000011 -0.016117
  2C   2s         0.065085 -0.221121  0.174244  0.621105 -0.422054  0.327584
  2C   3s        -0.047431  2.145668 -1.209650 -0.855646  1.019778  1.197921
  2C   1pz        0.017487 -0.069095  0.096876  0.056089 -0.083433  0.015132
  2C   1px        0.212670 -0.363493  0.207811  0.218570 -0.231367  0.066783
  2C   1py       -0.243783  0.166266  0.269905 -0.007472 -0.145560 -0.013660
  2C   2pz        0.074077  0.071691 -0.445976 -0.074256  0.469371 -0.541257
  2C   2px       -0.213177  0.951436 -0.574457 -0.310574  1.620052 -2.106990
  2C   2py        0.826153 -1.125184 -1.880439  0.044257  0.285986  0.076127
  3C   1s        -0.029428  0.000028  0.007056 -0.019732 -0.000371  0.013120
  3C   2s         0.130161  0.000998  0.262839  0.544282  0.006765 -0.199270
  3C   3s         0.411491 -0.007872 -2.508851 -0.587819  0.026235 -1.092316
  3C   1pz        0.003072  0.104632  0.002216  0.001516  0.097291  0.001546
  3C   1px        0.292942  0.291142  0.248637  0.137580  0.272591 -0.081052
  3C   1py       -0.470168  0.179296 -0.403227 -0.221032  0.163561  0.147275
  3C   2pz       -0.005813 -0.673392 -0.003973 -0.002468 -0.231400  0.005967
  3C   2px       -0.536357 -1.869637 -0.525903 -0.205273 -0.679370  1.271632
  3C   2py        0.857463 -1.159836  0.864228  0.329184 -0.339249 -2.085726
  4C   1s        -0.010907  0.007294  0.002443 -0.015668  0.000832 -0.016092
  4C   2s         0.064886  0.221802  0.171987  0.621192  0.402466  0.349491
  4C   3s        -0.046902 -2.155850 -1.192087 -0.856556 -1.080872  1.140833
  4C   1pz       -0.013835 -0.066649 -0.097826 -0.054962 -0.082808 -0.019533
  4C   1px        0.125840 -0.013746 -0.333358 -0.089613 -0.231971 -0.029776
  4C   1py       -0.298693 -0.400582 -0.064670 -0.199730 -0.138930 -0.074324
  4C   2pz       -0.083629  0.060882  0.459732  0.072451  0.434234  0.554082
  4C   2px       -0.651858 -0.575465  1.942790  0.096780  0.923465  0.913401
  4C   2py        0.557725  1.347512 -0.324999  0.298844  1.217622  1.998973
  5C   1s         0.010913  0.007271 -0.002497 -0.015657 -0.000844  0.016123
  5C   2s        -0.065153  0.220600 -0.173999  0.621313 -0.403029 -0.350432
  5C   3s         0.047872 -2.145065  1.208942 -0.857662  1.082564 -1.141610
  5C   1pz        0.017212 -0.069478  0.097190 -0.056266  0.082900  0.020109
  5C   1px        0.212333 -0.363281  0.207632 -0.218337  0.227651  0.079552
  5C   1py       -0.244898  0.166330  0.270016  0.007564  0.146113 -0.006087
  5C   2pz        0.075237  0.073567 -0.447369  0.074486 -0.441027 -0.566792
  5C   2px       -0.212526  0.950176 -0.573078  0.309445 -1.503041 -2.193560
  5C   2py        0.832359 -1.124994 -1.881397 -0.044969 -0.290503  0.060303
  6H   1s         0.517573 -0.001482 -0.393327 -0.261033 -0.014688  0.589273
  6H   2s        -1.059892 -0.002923 -0.620762  0.633619 -0.017523  0.717250
  7H   1s         0.238587 -0.414100 -0.267820 -0.200318  0.548227 -0.491753
  7H   2s        -0.379706 -0.489773 -0.351339  0.596349  0.706645 -0.639233
  8H   1s        -0.238719 -0.412701  0.271154 -0.200366 -0.549643  0.490806
  8H   2s         0.380490 -0.487940  0.355163  0.597285 -0.708691  0.638622
  9H   1s        -0.517349  0.001966  0.393218 -0.261189  0.017661 -0.588517
  9H   2s         1.059355  0.002713  0.620559  0.633498  0.021864 -0.716308
 10H   1s        -0.238543  0.414361  0.267705 -0.199941  0.520640  0.520625
 10H   2s         0.379345  0.489451  0.351014  0.596907  0.670833  0.676341
 11H   1s         0.238568  0.412743 -0.271028 -0.199988 -0.522303 -0.520359
 11H   2s        -0.379869  0.486913 -0.354519  0.596618 -0.672485 -0.676438
                     60        61        62        63        64        65   
                   1.51947   1.53885   1.56661   1.90631   1.91938   2.51137
                   0.00000   0.00000   0.00000   0.00000   0.00000   0.00000
                  --------  --------  --------  --------  --------  --------
  0C   1s         0.000904  0.000037  0.015516 -0.000052  0.027042  0.086801
  0C   2s        -0.468445 -0.002072 -1.041029 -0.001597  1.169716  1.036154
  0C   3s         1.130701  0.003552  1.037130  0.004877 -3.260883 -6.831187
  0C   1pz        0.001163  0.032865 -0.001272  0.067522  0.001288  0.000245
  0C   1px        0.162241  0.091007 -0.117503  0.186952  0.119862  0.047439
  0C   1py       -0.262661  0.056901  0.188821  0.116877 -0.192242 -0.076272
  0C   2pz       -0.008534 -0.175092  0.001287  0.100852 -0.010596 -0.022958
  0C   2px       -1.044920 -0.485600  0.076832  0.280652 -1.091449 -2.308183
  0C   2py        1.686626 -0.301903 -0.122371  0.171831  1.758175  3.715379
  1C   1s         0.000807  0.009215  0.000705  0.025546 -0.014466 -0.087041
  1C   2s         0.190361 -0.890973 -0.496443  0.981334 -0.549273 -1.004685
  1C   3s        -0.512792  1.168422  0.941541 -2.786031  1.589840  6.779601
  1C   1pz       -0.006311  0.061011  0.020755 -0.069397  0.000976  0.021607
  1C   1px       -0.174937  0.139576 -0.011260 -0.191258 -0.111748  0.038622
  1C   1py        0.251539  0.154470  0.150237 -0.121938  0.192139  0.073583
  1C   2pz       -0.154353 -0.157562 -0.080760  0.442302 -0.309521 -1.098654
  1C   2px        0.085967 -0.454232  0.149252  0.672780 -0.728513 -1.926978
  1C   2py       -1.121989 -0.241853 -0.760591  1.687375 -0.747338 -3.759699
  2C   1s         0.000793  0.009196 -0.000743 -0.025494 -0.014548  0.087032
  2C   2s         0.188894 -0.888647  0.499595 -0.979646 -0.551998  1.004521
  2C   3s        -0.507015  1.165245 -0.945426  2.781202  1.597139 -6.778832
  2C   1pz       -0.003706  0.061577 -0.022317  0.069379  0.003393 -0.021953
  2C   1px        0.146977  0.199729 -0.130408  0.193227  0.123419 -0.082922
[...]
  2C   2s        -0.067586  0.221296 -0.164383 -0.605338 -0.298677 -0.395824
  2C   3s         0.034154 -2.122533  1.231733  0.796979 -1.237012  1.020080
  2C   1pz       -0.021181  0.072647 -0.099091 -0.057206 -0.022964 -0.085114
  2C   1px       -0.226791  0.376200 -0.214042 -0.217389 -0.095048 -0.235113
  2C   1py        0.243938 -0.164897 -0.273674 -0.001536  0.010991 -0.149969
  2C   2pz       -0.059383 -0.075676  0.443086  0.076422  0.581619  0.461022
  2C   2px        0.253025 -0.971743  0.562788  0.297305  2.253404  1.577930
  2C   2py       -0.799335  1.133796  1.881702 -0.008384 -0.063809  0.303176
  3C   1s         0.027898 -0.000122 -0.007255  0.018649 -0.015036  0.000150
  3C   2s        -0.137524 -0.004558 -0.270404 -0.589792  0.281171 -0.001352
  3C   3s        -0.337677  0.040717  2.524400  0.715168  1.087869 -0.016036
  3C   1pz       -0.003091 -0.100322 -0.000882 -0.001516  0.001950  0.096677
  3C   1px       -0.290800 -0.282241 -0.239969 -0.136563  0.072396  0.267965
  3C   1py        0.466478 -0.166692  0.397197  0.219415 -0.110589  0.167430
  3C   2pz        0.005950  0.662911 -0.004496  0.002606 -0.014429 -0.223283
  3C   2px        0.530043  1.847354  0.509237  0.217573 -1.276611 -0.610490
  3C   2py       -0.846197  1.130256 -0.890314 -0.349194  2.040109 -0.402680
  4C   1s         0.011856 -0.006657 -0.002556  0.016190  0.016426 -0.000177
  4C   2s        -0.067321 -0.226171 -0.156370 -0.605576 -0.289962  0.400196
  4C   3s         0.033891  2.163858  1.158726  0.797979 -1.258303 -0.989308
  4C   1pz        0.017340  0.072742  0.098180  0.056159  0.020847 -0.085895
  4C   1px       -0.120007  0.029451  0.338758  0.097202  0.026804 -0.239783
  4C   1py        0.311336  0.413060  0.057799  0.194623  0.087683 -0.145479
  4C   2pz        0.069158 -0.076506 -0.455079 -0.075059 -0.559381  0.467415
  4C   2px        0.611137  0.523699 -1.952951 -0.123333 -0.916384  0.988394
  4C   2py       -0.581817 -1.360329  0.371681 -0.270949 -2.027869  1.320222
  5C   1s        -0.011877 -0.006562  0.002778  0.016181 -0.016455  0.000175
  5C   2s         0.067658 -0.220889  0.164163 -0.605572  0.290622 -0.401666
  5C   3s        -0.034607  2.122108 -1.231125  0.798738  1.259324  0.992640
  5C   1pz       -0.020872  0.073046 -0.099432  0.057353 -0.021589  0.086008
  5C   1px       -0.226436  0.376019 -0.213860  0.217086 -0.090328  0.237313
  5C   1py        0.245142 -0.164965 -0.273790  0.001475  0.014631  0.149684
  5C   2pz       -0.060637 -0.077550  0.444533 -0.076605  0.572396 -0.475092
  5C   2px        0.252353 -0.970529  0.561434 -0.295966  2.221020 -1.625602
  5C   2py       -0.806031  1.133653  1.882657  0.008955 -0.070322 -0.302388
  6H   1s        -0.501388  0.006987  0.415392  0.232075 -0.576123  0.008185
  6H   2s         1.054746  0.010743  0.612967 -0.649650 -0.711344  0.010328
  7H   1s        -0.242418  0.405474  0.249442  0.208282  0.526103  0.528840
  7H   2s         0.403076  0.523186  0.336552 -0.585794  0.687178  0.694132
  8H   1s         0.242826  0.397468 -0.263115  0.208410 -0.525236 -0.530875
  8H   2s        -0.404313  0.512509 -0.354065 -0.586635 -0.686566 -0.697244
  9H   1s         0.501165 -0.007404 -0.415278  0.232226  0.575357 -0.003827
  9H   2s        -1.054184 -0.010638 -0.612756 -0.649526  0.710450 -0.004522
 10H   1s         0.242352 -0.405695 -0.249356  0.207977 -0.514429  0.539924
 10H   2s        -0.402691 -0.522972 -0.336249 -0.586303 -0.671697  0.708594
 11H   1s        -0.242639 -0.397485  0.263017  0.208125  0.514210 -0.542109
 11H   2s         0.403637 -0.511575  0.353439 -0.585906  0.671859 -0.711306
                     60        61        62        63        64        65   
                   1.51946   1.56336   1.56382   1.91966   1.92486   2.51810
                   0.00000   0.00000   0.00000   0.00000   0.00000   0.00000
                  --------  --------  --------  --------  --------  --------
  0C   1s         0.000137  0.001905  0.012666 -0.000113  0.028003  0.086803
  0C   2s        -0.453759 -0.152114 -1.018774 -0.004028  1.149372  1.023301
  0C   3s         1.132240  0.180877  1.206311  0.011736 -3.239343 -6.810823
  0C   1pz        0.001023  0.030009 -0.005760  0.066346  0.001447  0.000234
  0C   1px        0.155496  0.065275 -0.136195  0.183438  0.122321  0.046037
  0C   1py       -0.252281  0.081802  0.191375  0.115273 -0.195337 -0.074018
  0C   2pz       -0.008241 -0.173851  0.028333  0.105137 -0.010491 -0.022926
  0C   2px       -1.025863 -0.450372  0.290378  0.294843 -1.105280 -2.305462
  0C   2py        1.656625 -0.353183 -0.307196  0.175367  1.781871  3.711012
  1C   1s         0.000107  0.008599  0.002263  0.025673 -0.014633 -0.087493
  1C   2s         0.222287 -0.959378 -0.377119  0.988628 -0.561809 -1.012416
  1C   3s        -0.562720  1.275059  0.566085 -2.803456  1.600216  6.795555
  1C   1pz       -0.004467  0.062292  0.009614 -0.068343  0.000389  0.021806
  1C   1px       -0.171766  0.133330 -0.035386 -0.188550 -0.114471  0.039264
  1C   1py        0.257940  0.173000  0.119614 -0.119778  0.192935  0.073785
  1C   2pz       -0.154940 -0.157556  0.005528  0.437220 -0.309302 -1.097055
  1C   2px        0.087940 -0.411520  0.317560  0.664755 -0.725015 -1.917907
  1C   2py       -1.129022 -0.312892 -0.493420  1.668440 -0.751726 -3.764666
  2C   1s         0.000091  0.007554 -0.004679 -0.025556 -0.014824  0.087485
  2C   2s         0.220055 -0.807047  0.640852 -0.984528 -0.568798  1.012277
  2C   3s        -0.554586  1.053971 -0.913463  2.791742  1.619578 -6.794831
  2C   1pz       -0.001996  0.057189 -0.028789  0.068308  0.003113 -0.022151
  2C   1px        0.153664  0.177886 -0.150129  0.189566  0.123729 -0.083391
  2C   1py       -0.269236  0.066467  0.068206  0.118022 -0.187203 -0.002859
  2C   2pz       -0.162472 -0.151557  0.046645 -0.445485 -0.315156  1.118510
  2C   2px       -0.964285 -0.355371  0.424449 -1.780832 -1.006601  4.218306
  2C   2py        0.578372 -0.369453 -0.413715  0.141000 -0.319402  0.062920
  3C   1s         0.000147 -0.001860 -0.012671 -0.000052  0.028001 -0.086799
  3C   2s        -0.453875  0.152158  1.018967 -0.004022  1.149353 -1.023260
  3C   3s         1.131137 -0.180912 -1.206809  0.011521 -3.239186  6.810547
  3C   1pz       -0.001327  0.030021 -0.005568 -0.066321 -0.001392  0.000651
  3C   1px       -0.155590  0.065083 -0.136165 -0.183362 -0.122411  0.045921
  3C   1py        0.252555  0.081898  0.191252 -0.115411  0.195284 -0.074101
  3C   2pz        0.009802 -0.173888  0.027751 -0.105197  0.009962 -0.021172
  3C   2px        1.027921 -0.448941  0.290501 -0.294697  1.106623 -2.307530
  3C   2py       -1.659215 -0.354572 -0.306116 -0.175147 -1.781009  3.709793
  4C   1s         0.000084 -0.008603 -0.002242  0.025667 -0.014621  0.087502
  4C   2s         0.222216  0.958956  0.377484  0.988341 -0.562299  1.012706
  4C   3s        -0.560216 -1.274343 -0.566968 -2.802548  1.602147 -6.798595
  4C   1pz        0.004632  0.062291  0.009409  0.068346 -0.000219  0.021929
  4C   1px        0.171726  0.133609 -0.035635  0.188443  0.114301  0.039239
  4C   1py       -0.258274  0.172841  0.119805  0.119780 -0.193019  0.073781
  4C   2pz        0.154755 -0.157161  0.005983 -0.436905  0.308470 -1.096025
  4C   2px       -0.086434 -0.411694  0.318107 -0.664639  0.725946 -1.919677
  4C   2py        1.132314 -0.312403 -0.494705 -1.668034  0.751877 -3.765306
  5C   1s         0.000103 -0.007555  0.004652 -0.025563 -0.014817 -0.087508
  5C   2s         0.218884  0.806907 -0.641212 -0.984176 -0.569246 -1.012616
  5C   3s        -0.554708 -1.054064  0.914616  2.791345  1.621504  6.798581
  5C   1pz        0.001982  0.057237 -0.028619 -0.068381 -0.003023 -0.022487
  5C   1px       -0.153913  0.177775 -0.150143 -0.189500 -0.123915 -0.083376
  5C   1py        0.269273  0.066744  0.068256 -0.117960  0.187081 -0.002872
  5C   2pz        0.161784 -0.151223  0.046061  0.445462  0.314689  1.118106
  5C   2px        0.962207 -0.353978  0.424590  1.780091  1.007128  4.219234
  5C   2py       -0.577802 -0.369907 -0.414249 -0.140677  0.320345  0.064441
  6H   1s        -0.626447  0.014443  0.098015  0.000740 -0.225687 -0.294930
  6H   2s        -0.814449 -0.013527 -0.088733  0.001085 -0.344681 -0.840603
  7H   1s         0.309842  0.093458  0.056720 -0.195010  0.107627  0.291168
  7H   2s         0.407349 -0.051392  0.001051 -0.312758  0.178777  0.843594
  8H   1s         0.306733  0.073383 -0.081830  0.194284  0.109211 -0.291061
  8H   2s         0.403530 -0.048820  0.013704  0.311484  0.181319 -0.843607
  9H   1s        -0.627300 -0.014972 -0.097748  0.000790 -0.225695  0.294957
  9H   2s        -0.815407  0.012908  0.089093  0.001206 -0.344683  0.840663
 10H   1s         0.310606 -0.093341 -0.056901 -0.194974  0.107566 -0.291163
 10H   2s         0.408223  0.051325 -0.001121 -0.312700  0.178744 -0.843640
 11H   1s         0.306265 -0.072778  0.081629  0.194092  0.109133  0.290995
 11H   2s         0.402393  0.049065 -0.013798  0.311233  0.181290  0.843200



                    ********************************
                    * MULLIKEN POPULATION ANALYSIS *
                    ********************************

--------------------------------------------
MULLIKEN ATOMIC CHARGES AND SPIN POPULATIONS
--------------------------------------------
   0 C :   -0.247942   -0.440396
   1 C :   -0.150340    0.492596
   2 C :   -0.150187    0.493900
   3 C :   -0.247940   -0.440443
   4 C :   -0.150404    0.492314
   5 C :   -0.150245    0.493555
   6 H :    0.334824    0.023546
   7 H :    0.356860   -0.034624
   8 H :    0.356865   -0.034704
   9 H :    0.334820    0.023550
  10 H :    0.356842   -0.034605
  11 H :    0.356848   -0.034688
Sum of atomic charges         :    1.0000000
Sum of atomic spin populations:    1.0000000

-----------------------------------------------------
MULLIKEN REDUCED ORBITAL CHARGES AND SPIN POPULATIONS
-----------------------------------------------------
CHARGE
  0 C s       :     3.280497  s :     3.280497
      pz      :     0.999715  p :     2.967445
      px      :     0.914436
      py      :     1.053294
  1 C s       :     3.335332  s :     3.335332
      pz      :     0.774849  p :     2.815008
      px      :     0.955843
      py      :     1.084315
  2 C s       :     3.335383  s :     3.335383
      pz      :     0.775179  p :     2.814805
      px      :     1.156931
      py      :     0.882695
  3 C s       :     3.280492  s :     3.280492
      pz      :     0.999711  p :     2.967447
      px      :     0.914471
      py      :     1.053266
  4 C s       :     3.335248  s :     3.335248
      pz      :     0.774989  p :     2.815156
      px      :     0.955816
      py      :     1.084350
  5 C s       :     3.335301  s :     3.335301
      pz      :     0.775469  p :     2.814944
      px      :     1.156798
      py      :     0.882677
  6 H s       :     0.665176  s :     0.665176
  7 H s       :     0.643140  s :     0.643140
  8 H s       :     0.643135  s :     0.643135
  9 H s       :     0.665180  s :     0.665180
 10 H s       :     0.643158  s :     0.643158
 11 H s       :     0.643152  s :     0.643152

SPIN
  0 C s       :    -0.088684  s :    -0.088684
      pz      :    -0.241849  p :    -0.351712
      px      :    -0.061593
      py      :    -0.048270
  1 C s       :     0.079373  s :     0.079373
      pz      :     0.350476  p :     0.413224
      px      :     0.054518
      py      :     0.008230
  2 C s       :     0.079590  s :     0.079590
      pz      :     0.351304  p :     0.414310
      px      :     0.043106
      py      :     0.019899
  3 C s       :    -0.088692  s :    -0.088692
      pz      :    -0.241880  p :    -0.351751
      px      :    -0.061570
      py      :    -0.048300
  4 C s       :     0.079346  s :     0.079346
      pz      :     0.350318  p :     0.412968
      px      :     0.054402
      py      :     0.008248
  5 C s       :     0.079557  s :     0.079557
      pz      :     0.351001  p :     0.413998
      px      :     0.043155
      py      :     0.019842
  6 H s       :     0.023546  s :     0.023546
  7 H s       :    -0.034624  s :    -0.034624
  8 H s       :    -0.034704  s :    -0.034704
  9 H s       :     0.023550  s :     0.023550
 10 H s       :    -0.034605  s :    -0.034605
 11 H s       :    -0.034688  s :    -0.034688


                     *******************************
                     * LOEWDIN POPULATION ANALYSIS *
                     *******************************

-------------------------------------------
LOEWDIN ATOMIC CHARGES AND SPIN POPULATIONS
-------------------------------------------
   0 C :   -0.115938   -0.274698
   1 C :    0.067799    0.400561
   2 C :    0.068060    0.401541
   3 C :   -0.115928   -0.274731
   4 C :    0.067666    0.400274
   5 C :    0.067930    0.401212
   6 H :    0.153791    0.013592
   7 H :    0.163218   -0.020320
   8 H :    0.163185   -0.020359
   9 H :    0.153789    0.013594
  10 H :    0.163208   -0.020309
  11 H :    0.163219   -0.020357

----------------------------------------------------
LOEWDIN REDUCED ORBITAL CHARGES AND SPIN POPULATIONS
----------------------------------------------------
CHARGE
  0 C s       :     2.929096  s :     2.929096
      pz      :     1.017954  p :     3.186842
      px      :     1.063576
      py      :     1.105311
  1 C s       :     2.953162  s :     2.953162
      pz      :     0.776689  p :     2.979039
      px      :     1.085875
      py      :     1.116475
  2 C s       :     2.953181  s :     2.953181
      pz      :     0.776469  p :     2.978760
      px      :     1.124411
      py      :     1.077880
  3 C s       :     2.929096  s :     2.929096
      pz      :     1.017939  p :     3.186832
      px      :     1.063670
      py      :     1.105223
  4 C s       :     2.953076  s :     2.953076
      pz      :     0.776803  p :     2.979258
      px      :     1.085977
      py      :     1.116478
  5 C s       :     2.953134  s :     2.953134
      pz      :     0.776662  p :     2.978936
      px      :     1.124342
      py      :     1.077932
  6 H s       :     0.846209  s :     0.846209
  7 H s       :     0.836782  s :     0.836782
  8 H s       :     0.836815  s :     0.836815
  9 H s       :     0.846211  s :     0.846211
 10 H s       :     0.836792  s :     0.836792
 11 H s       :     0.836781  s :     0.836781

SPIN
  0 C s       :    -0.022812  s :    -0.022812
      pz      :    -0.198134  p :    -0.251886
      px      :    -0.032643
      py      :    -0.021109
  1 C s       :     0.022855  s :     0.022855
      pz      :     0.327936  p :     0.377706
      px      :     0.036369
      py      :     0.013400
  2 C s       :     0.022917  s :     0.022917
      pz      :     0.328738  p :     0.378624
      px      :     0.034125
      py      :     0.015761
  3 C s       :    -0.022815  s :    -0.022815
      pz      :    -0.198157  p :    -0.251916
      px      :    -0.032639
      py      :    -0.021120
  4 C s       :     0.022838  s :     0.022838
      pz      :     0.327787  p :     0.377436
      px      :     0.036244
      py      :     0.013405
  5 C s       :     0.022900  s :     0.022900
      pz      :     0.328438  p :     0.378312
      px      :     0.034180
      py      :     0.015694
  6 H s       :     0.013592  s :     0.013592
  7 H s       :    -0.020320  s :    -0.020320
  8 H s       :    -0.020359  s :    -0.020359
  9 H s       :     0.013594  s :     0.013594
 10 H s       :    -0.020309  s :    -0.020309
 11 H s       :    -0.020357  s :    -0.020357


                      *****************************
                      * MAYER POPULATION ANALYSIS *
                      *****************************

  NA   - Mulliken gross atomic population
  ZA   - Total nuclear charge
  QA   - Mulliken gross atomic charge
  VA   - Mayer's total valence
  BVA  - Mayer's bonded valence
  FA   - Mayer's free valence

  ATOM       NA         ZA         QA         VA         BVA        FA
  0 C      6.2479     6.0000    -0.2479     3.6825     3.6043     0.0782
  1 C      6.1503     6.0000    -0.1503     3.5714     3.4189     0.1525
  2 C      6.1502     6.0000    -0.1502     3.5712     3.4180     0.1532
  3 C      6.2479     6.0000    -0.2479     3.6825     3.6043     0.0782
  4 C      6.1504     6.0000    -0.1504     3.5715     3.4192     0.1523
  5 C      6.1502     6.0000    -0.1502     3.5713     3.4184     0.1530
  6 H      0.6652     1.0000     0.3348     0.8727     0.8721     0.0006
  7 H      0.6431     1.0000     0.3569     0.8562     0.8550     0.0012
  8 H      0.6431     1.0000     0.3569     0.8562     0.8550     0.0012
  9 H      0.6652     1.0000     0.3348     0.8727     0.8721     0.0006
 10 H      0.6432     1.0000     0.3568     0.8562     0.8550     0.0012
 11 H      0.6432     1.0000     0.3568     0.8562     0.8550     0.0012

  Mayer bond orders larger than 0.1
B(  0-C ,  1-C ) :   1.3678 B(  0-C ,  5-C ) :   1.3673 B(  0-C ,  6-H ) :   0.8919 
B(  1-C ,  2-C ) :   1.1426 B(  1-C ,  7-H ) :   0.8749 B(  2-C ,  3-C ) :   1.3669 
B(  2-C ,  8-H ) :   0.8749 B(  3-C ,  4-C ) :   1.3682 B(  3-C ,  9-H ) :   0.8919 
B(  4-C ,  5-C ) :   1.1425 B(  4-C , 10-H ) :   0.8749 B(  5-C , 11-H ) :   0.8749 


-------
TIMINGS
-------

Total SCF time: 0 days 0 hours 0 min 0 sec 

Total time                  ....       0.347 sec
Sum of individual times     ....       0.344 sec  ( 99.2%)

Fock matrix formation       ....       0.339 sec  ( 97.7%)
Diagonalization             ....       0.002 sec  (  0.6%)
Density matrix formation    ....       0.000 sec  (  0.0%)
Population analysis         ....       0.002 sec  (  0.6%)
Initial guess               ....       0.001 sec  (  0.2%)
Orbital Transformation      ....       0.000 sec  (  0.0%)
Orbital Orthonormalization  ....       0.000 sec  (  0.1%)
DIIS solution               ....       0.000 sec  (  0.1%)

-------------------------   --------------------
FINAL SINGLE POINT ENERGY      -229.121773915435
-------------------------   --------------------


                            ***************************************
                            *     ORCA property calculations      *
                            ***************************************

                                    ---------------------
                                    Active property flags
                                    ---------------------
   (+) Dipole Moment


------------------------------------------------------------------------------
                       ORCA ELECTRIC PROPERTIES CALCULATION
------------------------------------------------------------------------------

Dipole Moment Calculation                       ... on
Quadrupole Moment Calculation                   ... off
Polarizability Calculation                      ... off
GBWName                                         ... benzene_orca_cat.gbw
Electron density file                           ... benzene_orca_cat.scfp.tmp

-------------
DIPOLE MOMENT
-------------
                                X             Y             Z
Electronic contribution:      0.00047       0.00030       0.00063
Nuclear contribution   :      0.00000      -0.00000      -0.00000
                        -----------------------------------------
Total Dipole Moment    :      0.00047       0.00030       0.00063
                        -----------------------------------------
Magnitude (a.u.)       :      0.00084
Magnitude (Debye)      :      0.00214


Timings for individual modules:

Sum of individual times         ...        0.474 sec (=   0.008 min)
GTO integral calculation        ...        0.117 sec (=   0.002 min)  24.7 %
SCF iterations                  ...        0.357 sec (=   0.006 min)  75.3 %
                             ****ORCA TERMINATED NORMALLY****
TOTAL RUN TIME: 0 days 0 hours 0 minutes 0 seconds 551 msec
