 *******************************************************************************
 ** Site#: 29116        For non-commercial use only    Version 18.025L 64BITS **
 *******************************************************************************
 ** Cite this program as: MOPAC2016, Version: 18.025L, James J. P. Stewart,   **
 ** Stewart Computational Chemistry, web: HTTP://OpenMOPAC.net. Days left: 115**
 *******************************************************************************
 **                                                                           **
 **                                MOPAC2016                                  **
 **                                                                           **
 *******************************************************************************

                              PM7 CALCULATION RESULTS


 *******************************************************************************
 *  CALCULATION DONE:                                Tue Oct  2 19:50:54 2018  *
 *  PM7        - The PM7 Hamiltonian to be used
 *  SINGLET    - SPIN STATE DEFINED AS A SINGLET
 *
 *
 *
 *                 CHARGE ON SYSTEM = 0
 *
 *
 *
 *  1SCF       - DO 1 SCF AND THEN STOP 
 *  T=         - A TIME OF 172800.0 SECONDS REQUESTED
 *  DUMP=N     - RESTART FILE WRITTEN EVERY  7200.000 SECONDS
 *  AUX        - OUTPUT AUXILIARY INFORMATION
 *  BONDS      - FINAL BOND-ORDER MATRIX TO BE PRINTED
 *******************************************************************************
PM7 1SCF    CHARGE=0 Singlet  BONDS AUX

 Mopac file generated by Gabedit
   ATOM   CHEMICAL          X               Y               Z
  NUMBER   SYMBOL      (ANGSTROMS)     (ANGSTROMS)     (ANGSTROMS)
 
     1       C         -0.73900000  *   1.18900000  *  -0.00733400  *
     2       C          0.61400000  *   1.20800000  *   0.35166600  *
     3       C          1.35300000  *   0.01900000  *   0.35866600  *
     4       C          0.73900000  *  -1.18900000  *   0.00666600  *
     5       C         -0.61400000  *  -1.20800000  *  -0.35133400  *
     6       C         -1.35300000  *  -0.01900000  *  -0.35833400  *
     7       H         -1.30900000  *   2.10600000  *  -0.01233400  *
     8       H          1.08800000  *   2.14000000  *   0.62266600  *
     9       H          2.39700000  *   0.03400000  *   0.63466600  *
    10       H          1.30900000  *  -2.10600000  *   0.01266600  *
    11       H         -1.08800000  *  -2.14000000  *  -0.62233400  *
    12       H         -2.39700000  *  -0.03400000  *  -0.63533400  *
 


          CARTESIAN COORDINATES 

    NO.       ATOM           X           Y           Z

     1         C         -0.7390      1.1890     -0.0073
     2         C          0.6140      1.2080      0.3517
     3         C          1.3530      0.0190      0.3587
     4         C          0.7390     -1.1890      0.0067
     5         C         -0.6140     -1.2080     -0.3513
     6         C         -1.3530     -0.0190     -0.3583
     7         H         -1.3090      2.1060     -0.0123
     8         H          1.0880      2.1400      0.6227
     9         H          2.3970      0.0340      0.6347
    10         H          1.3090     -2.1060      0.0127
    11         H         -1.0880     -2.1400     -0.6223
    12         H         -2.3970     -0.0340     -0.6353

 General Reference for PM7:
 "Optimization of Parameters for Semiempirical Methods VI: More Modifications to the 
 NDDO Approximations and Re-optimization of Parameters", J. J. P. Stewart, J. Mol. Mod., 1:32, 19 (2013)
 http://www.springerlink.com/openurl.asp?genre=article&id=doi:10.1007/s00894-012-1667-x

           Empirical Formula: C6 H6  =    12 atoms



      MOLECULAR POINT GROUP   :   D6h 


 SINGLET STATE CALCULATION


      RHF CALCULATION, NO. OF DOUBLY OCCUPIED LEVELS = 15


 -------------------------------------------------------------------------------
 PM7 1SCF    CHARGE=0 Singlet  BONDS AUX

 Mopac file generated by Gabedit


     1SCF WAS SPECIFIED, SO BFGS WAS NOT USED                 
     SCF FIELD WAS ACHIEVED                                   


                              PM7 CALCULATION
                                                       MOPAC2016 (Version: 18.025L)
                                                       Tue Oct  2 19:50:54 2018
                                                       No. of days remaining = 115




          FINAL HEAT OF FORMATION =         23.20334 KCAL/MOL =      97.08279 KJ/MOL


          TOTAL ENERGY            =       -817.55112 EV
          ELECTRONIC ENERGY       =      -3247.32675 EV  POINT GROUP:     D6h 
          CORE-CORE REPULSION     =       2429.77563 EV
          COSMO AREA              =        118.62 SQUARE ANGSTROMS
          COSMO VOLUME            =        107.09 CUBIC ANGSTROMS

          IONIZATION POTENTIAL    =          9.805007 EV
          HOMO LUMO ENERGIES (EV) =         -9.805  0.204
          NO. OF FILLED LEVELS    =         15
          MOLECULAR WEIGHT        =         78.1134

          MOLECULAR DIMENSIONS (Angstroms)

            Atom       Atom       Distance
            H    11    H     8     4.96018
            H    12    H    10     4.29506
            H     7    H     9     0.00096


          SCF CALCULATIONS        =          1
 
          WALL-CLOCK TIME         =          0.273 SECONDS
          COMPUTATION TIME        =          0.160 SECONDS




   ATOM   CHEMICAL          X               Y               Z
  NUMBER   SYMBOL      (ANGSTROMS)     (ANGSTROMS)     (ANGSTROMS)
 
     1       C         -0.73900000  *   1.18900000  *  -0.00733400  *
     2       C          0.61400000  *   1.20800000  *   0.35166600  *
     3       C          1.35300000  *   0.01900000  *   0.35866600  *
     4       C          0.73900000  *  -1.18900000  *   0.00666600  *
     5       C         -0.61400000  *  -1.20800000  *  -0.35133400  *
     6       C         -1.35300000  *  -0.01900000  *  -0.35833400  *
     7       H         -1.30900000  *   2.10600000  *  -0.01233400  *
     8       H          1.08800000  *   2.14000000  *   0.62266600  *
     9       H          2.39700000  *   0.03400000  *   0.63466600  *
    10       H          1.30900000  *  -2.10600000  *   0.01266600  *
    11       H         -1.08800000  *  -2.14000000  *  -0.62233400  *
    12       H         -2.39700000  *  -0.03400000  *  -0.63533400  *

                             CARTESIAN COORDINATES

   1    C       -0.739000000     1.189000000    -0.007334000
   2    C        0.614000000     1.208000000     0.351666000
   3    C        1.353000000     0.019000000     0.358666000
   4    C        0.739000000    -1.189000000     0.006666000
   5    C       -0.614000000    -1.208000000    -0.351334000
   6    C       -1.353000000    -0.019000000    -0.358334000
   7    H       -1.309000000     2.106000000    -0.012334000
   8    H        1.088000000     2.140000000     0.622666000
   9    H        2.397000000     0.034000000     0.634666000
  10    H        1.309000000    -2.106000000     0.012666000
  11    H       -1.088000000    -2.140000000    -0.622334000
  12    H       -2.397000000    -0.034000000    -0.635334000


           Empirical Formula: C6 H6  =    12 atoms



      MOLECULAR POINT GROUP   :   D6h 


                  EIGENVALUES  
 -30.32483 -25.81744 -25.81473 -20.93646 -20.93414 -18.08219 -15.49339 -15.20324
 -14.28067 -14.27873 -13.36874 -11.97629 -11.97611  -9.80617  -9.80501   0.20391
   0.20441   2.53752   4.41207   4.41229   5.01968   5.28447   5.28547   5.58192
   5.82432   6.15613   6.15788   6.21982   6.22176   6.40468


              NET ATOMIC CHARGES AND DIPOLE CONTRIBUTIONS

  ATOM NO.   TYPE          CHARGE      No. of ELECS.   s-Pop       p-Pop       
    1          C          -0.146986        4.1470     1.08470     3.06228
    2          C          -0.147029        4.1470     1.08482     3.06221
    3          C          -0.147009        4.1470     1.08480     3.06221
    4          C          -0.146987        4.1470     1.08470     3.06228
    5          C          -0.147042        4.1470     1.08475     3.06229
    6          C          -0.147008        4.1470     1.08478     3.06223
    7          H           0.146983        0.8530     0.85302
    8          H           0.147032        0.8530     0.85297
    9          H           0.146997        0.8530     0.85300
   10          H           0.146984        0.8530     0.85302
   11          H           0.147035        0.8530     0.85296
   12          H           0.147030        0.8530     0.85297
 DIPOLE           X         Y         Z       TOTAL
 POINT-CHG.    -0.000     0.000    -0.000     0.000
 HYBRID         0.000     0.000     0.000     0.000
 SUM           -0.000     0.000    -0.000     0.000


          ATOMIC ORBITAL ELECTRON POPULATIONS

     Atom    s        px        py        pz   
    1  C   1.08470   1.01255   1.05080   0.99893
    2  C   1.08482   1.00499   1.05282   1.00440
    3  C   1.08480   1.06996   0.98761   1.00464
    4  C   1.08470   1.01258   1.05080   0.99891
    5  C   1.08475   1.00498   1.05285   1.00446
    6  C   1.08478   1.06998   0.98759   1.00465
    7  H   0.85302
    8  H   0.85297
    9  H   0.85300
   10  H   0.85302
   11  H   0.85296
   12  H   0.85297

          BONDING CONTRIBUTION OF EACH M.O.

  1.9512  1.9309  1.9309  1.9484  1.9483  1.9651  1.9577  2.0254  2.0076  2.0077
  2.0000  2.0300  2.0299  2.0000  2.0000 -2.0000 -2.0000 -2.0000 -1.9499 -1.9499
 -1.9746 -2.0055 -2.0054 -1.9418 -2.0049 -1.9729 -1.9729 -1.9887 -1.9886 -1.9782





            (VALENCIES)   BOND ORDERS

     1  C     (3.977)     6  C 1.443     2  C 1.442     7  H 0.966     4  C 0.114
 
     2  C     (3.977)     3  C 1.443     1  C 1.442     8  H 0.966     5  C 0.114
 
     3  C     (3.977)     2  C 1.443     4  C 1.442     9  H 0.966     6  C 0.114
 
     4  C     (3.977)     5  C 1.443     3  C 1.442    10  H 0.966     1  C 0.114
 
     5  C     (3.977)     4  C 1.443     6  C 1.442    11  H 0.966     2  C 0.114
 
     6  C     (3.977)     1  C 1.443     5  C 1.442    12  H 0.966     3  C 0.114
 
     7  H     (0.978)     1  C 0.966
 
     8  H     (0.978)     2  C 0.966
 
     9  H     (0.978)     3  C 0.966
 
    10  H     (0.978)     4  C 0.966
 
    11  H     (0.978)     5  C 0.966
 
    12  H     (0.978)     6  C 0.966
 

 **********************
 *                    *
 * JOB ENDED NORMALLY *
 *                    *
 **********************



 TOTAL JOB TIME:             0.40 SECONDS

 == MOPAC DONE ==
