 *******************************************************************************
 ** Site#: 29116        For non-commercial use only    Version 18.025L 64BITS **
 *******************************************************************************
 ** Cite this program as: MOPAC2016, Version: 18.025L, James J. P. Stewart,   **
 ** Stewart Computational Chemistry, web: HTTP://OpenMOPAC.net. Days left: 115**
 *******************************************************************************
 **                                                                           **
 **                                MOPAC2016                                  **
 **                                                                           **
 *******************************************************************************

                              PM7 CALCULATION RESULTS


 *******************************************************************************
 *  CALCULATION DONE:                                Tue Oct  2 19:53:19 2018  *
 *  PM7        - The PM7 Hamiltonian to be used
 *  SINGLET    - SPIN STATE DEFINED AS A SINGLET
 *
 *
 *
 *                 CHARGE ON SYSTEM = 0
 *
 *
 *
 *  1SCF       - DO 1 SCF AND THEN STOP 
 *  T=         - A TIME OF 172800.0 SECONDS REQUESTED
 *  DUMP=N     - RESTART FILE WRITTEN EVERY  7200.000 SECONDS
 *  AUX        - OUTPUT AUXILIARY INFORMATION
 *  BONDS      - FINAL BOND-ORDER MATRIX TO BE PRINTED
 *******************************************************************************
PM7 1SCF    CHARGE=0 Singlet  BONDS AUX

 Mopac file generated by Gabedit
   ATOM   CHEMICAL          X               Y               Z
  NUMBER   SYMBOL      (ANGSTROMS)     (ANGSTROMS)     (ANGSTROMS)
 
     1       C          1.22650000  *   0.00000000  *   3.31450000  *
     2       C          0.37900000  *   1.16640000  *   3.31450000  *
     3       C         -0.99220000  *   0.72090000  *   3.31450000  *
     4       C         -0.99220000  *  -0.72090000  *   3.31450000  *
     5       C          0.37900000  *  -1.16640000  *   3.31450000  *
     6       C          3.40840000  *   0.72090000  *   0.59480000  *
     7       C          2.79510000  *   1.16640000  *   1.82130000  *
     8       C          2.41610000  *   0.00000000  *   2.57930000  *
     9       C          2.79510000  *  -1.16640000  *   1.82130000  *
    10       C          3.40840000  *  -0.72090000  *   0.59480000  *
    11       C          0.36760000  *   3.46430000  *   0.59480000  *
    12       C         -0.24560000  *   3.01880000  *   1.82130000  *
    13       C          0.74660000  *   2.29790000  *   2.57930000  *
    14       C          1.97310000  *   2.29790000  *   1.82130000  *
    15       C          1.73890000  *   3.01880000  *   0.59480000  *
    16       C         -3.18120000  *   1.42020000  *   0.59480000  *
    17       C         -2.94690000  *   0.69930000  *   1.82130000  *
    18       C         -1.95470000  *   1.42020000  *   2.57930000  *
    19       C         -1.57570000  *   2.58660000  *   1.82130000  *
    20       C         -2.33370000  *   2.58660000  *   0.59480000  *
    21       C         -2.33370000  *  -2.58660000  *   0.59480000  *
    22       C         -1.57570000  *  -2.58660000  *   1.82130000  *
    23       C         -1.95470000  *  -1.42020000  *   2.57930000  *
    24       C         -2.94690000  *  -0.69930000  *   1.82130000  *
    25       C         -3.18120000  *  -1.42020000  *   0.59480000  *
    26       C          1.73890000  *  -3.01880000  *   0.59480000  *
    27       C          1.97310000  *  -2.29790000  *   1.82130000  *
    28       C          0.74660000  *  -2.29790000  *   2.57930000  *
    29       C         -0.24560000  *  -3.01880000  *   1.82130000  *
    30       C          0.36760000  *  -3.46430000  *   0.59480000  *
    31       C          0.99220000  *   0.72090000  *  -3.31450000  *
    32       C         -0.37900000  *   1.16640000  *  -3.31450000  *
    33       C         -1.22650000  *   0.00000000  *  -3.31450000  *
    34       C         -0.37900000  *  -1.16640000  *  -3.31450000  *
    35       C          0.99220000  *  -0.72090000  *  -3.31450000  *
    36       C          2.33370000  *   2.58660000  *  -0.59480000  *
    37       C          1.57570000  *   2.58660000  *  -1.82130000  *
    38       C          1.95470000  *   1.42020000  *  -2.57930000  *
    39       C          2.94690000  *   0.69930000  *  -1.82130000  *
    40       C          3.18120000  *   1.42020000  *  -0.59480000  *
    41       C         -1.73890000  *   3.01880000  *  -0.59480000  *
    42       C         -1.97310000  *   2.29790000  *  -1.82130000  *
    43       C         -0.74660000  *   2.29790000  *  -2.57930000  *
    44       C          0.24560000  *   3.01880000  *  -1.82130000  *
    45       C         -0.36760000  *   3.46430000  *  -0.59480000  *
    46       C         -3.40840000  *  -0.72090000  *  -0.59480000  *
    47       C         -2.79510000  *  -1.16640000  *  -1.82130000  *
    48       C         -2.41610000  *   0.00000000  *  -2.57930000  *
    49       C         -2.79510000  *   1.16640000  *  -1.82130000  *
    50       C         -3.40840000  *   0.72090000  *  -0.59480000  *
    51       C         -0.36760000  *  -3.46430000  *  -0.59480000  *
    52       C          0.24560000  *  -3.01880000  *  -1.82130000  *
    53       C         -0.74660000  *  -2.29790000  *  -2.57930000  *
    54       C         -1.97310000  *  -2.29790000  *  -1.82130000  *
    55       C         -1.73890000  *  -3.01880000  *  -0.59480000  *
    56       C          3.18120000  *  -1.42020000  *  -0.59480000  *
    57       C          2.94690000  *  -0.69930000  *  -1.82130000  *
    58       C          1.95470000  *  -1.42020000  *  -2.57930000  *
    59       C          1.57570000  *  -2.58660000  *  -1.82130000  *
    60       C          2.33370000  *  -2.58660000  *  -0.59480000  *
 


          CARTESIAN COORDINATES 

    NO.       ATOM           X           Y           Z

     1         C          1.2265      0.0000      3.3145
     2         C          0.3790      1.1664      3.3145
     3         C         -0.9922      0.7209      3.3145
     4         C         -0.9922     -0.7209      3.3145
     5         C          0.3790     -1.1664      3.3145
     6         C          3.4084      0.7209      0.5948
     7         C          2.7951      1.1664      1.8213
     8         C          2.4161      0.0000      2.5793
     9         C          2.7951     -1.1664      1.8213
    10         C          3.4084     -0.7209      0.5948
    11         C          0.3676      3.4643      0.5948
    12         C         -0.2456      3.0188      1.8213
    13         C          0.7466      2.2979      2.5793
    14         C          1.9731      2.2979      1.8213
    15         C          1.7389      3.0188      0.5948
    16         C         -3.1812      1.4202      0.5948
    17         C         -2.9469      0.6993      1.8213
    18         C         -1.9547      1.4202      2.5793
    19         C         -1.5757      2.5866      1.8213
    20         C         -2.3337      2.5866      0.5948
    21         C         -2.3337     -2.5866      0.5948
    22         C         -1.5757     -2.5866      1.8213
    23         C         -1.9547     -1.4202      2.5793
    24         C         -2.9469     -0.6993      1.8213
    25         C         -3.1812     -1.4202      0.5948
    26         C          1.7389     -3.0188      0.5948
    27         C          1.9731     -2.2979      1.8213
    28         C          0.7466     -2.2979      2.5793
    29         C         -0.2456     -3.0188      1.8213
    30         C          0.3676     -3.4643      0.5948
    31         C          0.9922      0.7209     -3.3145
    32         C         -0.3790      1.1664     -3.3145
    33         C         -1.2265      0.0000     -3.3145
    34         C         -0.3790     -1.1664     -3.3145
    35         C          0.9922     -0.7209     -3.3145
    36         C          2.3337      2.5866     -0.5948
    37         C          1.5757      2.5866     -1.8213
    38         C          1.9547      1.4202     -2.5793
    39         C          2.9469      0.6993     -1.8213
    40         C          3.1812      1.4202     -0.5948
    41         C         -1.7389      3.0188     -0.5948
    42         C         -1.9731      2.2979     -1.8213
    43         C         -0.7466      2.2979     -2.5793
    44         C          0.2456      3.0188     -1.8213
    45         C         -0.3676      3.4643     -0.5948
    46         C         -3.4084     -0.7209     -0.5948
    47         C         -2.7951     -1.1664     -1.8213
    48         C         -2.4161      0.0000     -2.5793
    49         C         -2.7951      1.1664     -1.8213
    50         C         -3.4084      0.7209     -0.5948
    51         C         -0.3676     -3.4643     -0.5948
    52         C          0.2456     -3.0188     -1.8213
    53         C         -0.7466     -2.2979     -2.5793
    54         C         -1.9731     -2.2979     -1.8213
    55         C         -1.7389     -3.0188     -0.5948
    56         C          3.1812     -1.4202     -0.5948
    57         C          2.9469     -0.6993     -1.8213
    58         C          1.9547     -1.4202     -2.5793
    59         C          1.5757     -2.5866     -1.8213
    60         C          2.3337     -2.5866     -0.5948

 General Reference for PM7:
 "Optimization of Parameters for Semiempirical Methods VI: More Modifications to the 
 NDDO Approximations and Re-optimization of Parameters", J. J. P. Stewart, J. Mol. Mod., 1:32, 19 (2013)
 http://www.springerlink.com/openurl.asp?genre=article&id=doi:10.1007/s00894-012-1667-x

           Empirical Formula: C60  =    60 atoms



      MOLECULAR POINT GROUP   :   Ih  


 SINGLET STATE CALCULATION


      RHF CALCULATION, NO. OF DOUBLY OCCUPIED LEVELS = 120


 -------------------------------------------------------------------------------
 PM7 1SCF    CHARGE=0 Singlet  BONDS AUX

 Mopac file generated by Gabedit


     1SCF WAS SPECIFIED, SO BFGS WAS NOT USED                 
     SCF FIELD WAS ACHIEVED                                   


                              PM7 CALCULATION
                                                       MOPAC2016 (Version: 18.025L)
                                                       Tue Oct  2 19:53:19 2018
                                                       No. of days remaining = 115




          FINAL HEAT OF FORMATION =        843.72765 KCAL/MOL =    3530.15647 KJ/MOL


          TOTAL ENERGY            =      -7346.97346 EV
          ELECTRONIC ENERGY       =    -102638.93625 EV  POINT GROUP:     Ih  
          CORE-CORE REPULSION     =      95291.96279 EV
          COSMO AREA              =        401.60 SQUARE ANGSTROMS
          COSMO VOLUME            =        620.28 CUBIC ANGSTROMS

          IONIZATION POTENTIAL    =          9.569575 EV
          HOMO LUMO ENERGIES (EV) =         -9.570 -3.170
          NO. OF FILLED LEVELS    =        120
          MOLECULAR WEIGHT        =        720.6600

          MOLECULAR DIMENSIONS (Angstroms)

            Atom       Atom       Distance
            C    40    C    25     7.06846
            C    41    C    26     7.05045
            C    34    C     2     7.02944


          SCF CALCULATIONS        =          1
 
          WALL-CLOCK TIME         =          0.094 SECONDS
          COMPUTATION TIME        =          0.308 SECONDS




   ATOM   CHEMICAL          X               Y               Z
  NUMBER   SYMBOL      (ANGSTROMS)     (ANGSTROMS)     (ANGSTROMS)
 
     1       C          1.22650000  *   0.00000000  *   3.31450000  *
     2       C          0.37900000  *   1.16640000  *   3.31450000  *
     3       C         -0.99220000  *   0.72090000  *   3.31450000  *
     4       C         -0.99220000  *  -0.72090000  *   3.31450000  *
     5       C          0.37900000  *  -1.16640000  *   3.31450000  *
     6       C          3.40840000  *   0.72090000  *   0.59480000  *
     7       C          2.79510000  *   1.16640000  *   1.82130000  *
     8       C          2.41610000  *   0.00000000  *   2.57930000  *
     9       C          2.79510000  *  -1.16640000  *   1.82130000  *
    10       C          3.40840000  *  -0.72090000  *   0.59480000  *
    11       C          0.36760000  *   3.46430000  *   0.59480000  *
    12       C         -0.24560000  *   3.01880000  *   1.82130000  *
    13       C          0.74660000  *   2.29790000  *   2.57930000  *
    14       C          1.97310000  *   2.29790000  *   1.82130000  *
    15       C          1.73890000  *   3.01880000  *   0.59480000  *
    16       C         -3.18120000  *   1.42020000  *   0.59480000  *
    17       C         -2.94690000  *   0.69930000  *   1.82130000  *
    18       C         -1.95470000  *   1.42020000  *   2.57930000  *
    19       C         -1.57570000  *   2.58660000  *   1.82130000  *
    20       C         -2.33370000  *   2.58660000  *   0.59480000  *
    21       C         -2.33370000  *  -2.58660000  *   0.59480000  *
    22       C         -1.57570000  *  -2.58660000  *   1.82130000  *
    23       C         -1.95470000  *  -1.42020000  *   2.57930000  *
    24       C         -2.94690000  *  -0.69930000  *   1.82130000  *
    25       C         -3.18120000  *  -1.42020000  *   0.59480000  *
    26       C          1.73890000  *  -3.01880000  *   0.59480000  *
    27       C          1.97310000  *  -2.29790000  *   1.82130000  *
    28       C          0.74660000  *  -2.29790000  *   2.57930000  *
    29       C         -0.24560000  *  -3.01880000  *   1.82130000  *
    30       C          0.36760000  *  -3.46430000  *   0.59480000  *
    31       C          0.99220000  *   0.72090000  *  -3.31450000  *
    32       C         -0.37900000  *   1.16640000  *  -3.31450000  *
    33       C         -1.22650000  *   0.00000000  *  -3.31450000  *
    34       C         -0.37900000  *  -1.16640000  *  -3.31450000  *
    35       C          0.99220000  *  -0.72090000  *  -3.31450000  *
    36       C          2.33370000  *   2.58660000  *  -0.59480000  *
    37       C          1.57570000  *   2.58660000  *  -1.82130000  *
    38       C          1.95470000  *   1.42020000  *  -2.57930000  *
    39       C          2.94690000  *   0.69930000  *  -1.82130000  *
    40       C          3.18120000  *   1.42020000  *  -0.59480000  *
    41       C         -1.73890000  *   3.01880000  *  -0.59480000  *
    42       C         -1.97310000  *   2.29790000  *  -1.82130000  *
    43       C         -0.74660000  *   2.29790000  *  -2.57930000  *
    44       C          0.24560000  *   3.01880000  *  -1.82130000  *
    45       C         -0.36760000  *   3.46430000  *  -0.59480000  *
    46       C         -3.40840000  *  -0.72090000  *  -0.59480000  *
    47       C         -2.79510000  *  -1.16640000  *  -1.82130000  *
    48       C         -2.41610000  *   0.00000000  *  -2.57930000  *
    49       C         -2.79510000  *   1.16640000  *  -1.82130000  *
    50       C         -3.40840000  *   0.72090000  *  -0.59480000  *
    51       C         -0.36760000  *  -3.46430000  *  -0.59480000  *
    52       C          0.24560000  *  -3.01880000  *  -1.82130000  *
    53       C         -0.74660000  *  -2.29790000  *  -2.57930000  *
    54       C         -1.97310000  *  -2.29790000  *  -1.82130000  *
    55       C         -1.73890000  *  -3.01880000  *  -0.59480000  *
    56       C          3.18120000  *  -1.42020000  *  -0.59480000  *
    57       C          2.94690000  *  -0.69930000  *  -1.82130000  *
    58       C          1.95470000  *  -1.42020000  *  -2.57930000  *
    59       C          1.57570000  *  -2.58660000  *  -1.82130000  *
    60       C          2.33370000  *  -2.58660000  *  -0.59480000  *

                             CARTESIAN COORDINATES

   1    C        1.226500000     0.000000000     3.314500000
   2    C        0.379000000     1.166400000     3.314500000
   3    C       -0.992200000     0.720900000     3.314500000
   4    C       -0.992200000    -0.720900000     3.314500000
   5    C        0.379000000    -1.166400000     3.314500000
   6    C        3.408400000     0.720900000     0.594800000
   7    C        2.795100000     1.166400000     1.821300000
   8    C        2.416100000     0.000000000     2.579300000
   9    C        2.795100000    -1.166400000     1.821300000
  10    C        3.408400000    -0.720900000     0.594800000
  11    C        0.367600000     3.464300000     0.594800000
  12    C       -0.245600000     3.018800000     1.821300000
  13    C        0.746600000     2.297900000     2.579300000
  14    C        1.973100000     2.297900000     1.821300000
  15    C        1.738900000     3.018800000     0.594800000
  16    C       -3.181200000     1.420200000     0.594800000
  17    C       -2.946900000     0.699300000     1.821300000
  18    C       -1.954700000     1.420200000     2.579300000
  19    C       -1.575700000     2.586600000     1.821300000
  20    C       -2.333700000     2.586600000     0.594800000
  21    C       -2.333700000    -2.586600000     0.594800000
  22    C       -1.575700000    -2.586600000     1.821300000
  23    C       -1.954700000    -1.420200000     2.579300000
  24    C       -2.946900000    -0.699300000     1.821300000
  25    C       -3.181200000    -1.420200000     0.594800000
  26    C        1.738900000    -3.018800000     0.594800000
  27    C        1.973100000    -2.297900000     1.821300000
  28    C        0.746600000    -2.297900000     2.579300000
  29    C       -0.245600000    -3.018800000     1.821300000
  30    C        0.367600000    -3.464300000     0.594800000
  31    C        0.992200000     0.720900000    -3.314500000
  32    C       -0.379000000     1.166400000    -3.314500000
  33    C       -1.226500000     0.000000000    -3.314500000
  34    C       -0.379000000    -1.166400000    -3.314500000
  35    C        0.992200000    -0.720900000    -3.314500000
  36    C        2.333700000     2.586600000    -0.594800000
  37    C        1.575700000     2.586600000    -1.821300000
  38    C        1.954700000     1.420200000    -2.579300000
  39    C        2.946900000     0.699300000    -1.821300000
  40    C        3.181200000     1.420200000    -0.594800000
  41    C       -1.738900000     3.018800000    -0.594800000
  42    C       -1.973100000     2.297900000    -1.821300000
  43    C       -0.746600000     2.297900000    -2.579300000
  44    C        0.245600000     3.018800000    -1.821300000
  45    C       -0.367600000     3.464300000    -0.594800000
  46    C       -3.408400000    -0.720900000    -0.594800000
  47    C       -2.795100000    -1.166400000    -1.821300000
  48    C       -2.416100000     0.000000000    -2.579300000
  49    C       -2.795100000     1.166400000    -1.821300000
  50    C       -3.408400000     0.720900000    -0.594800000
  51    C       -0.367600000    -3.464300000    -0.594800000
  52    C        0.245600000    -3.018800000    -1.821300000
  53    C       -0.746600000    -2.297900000    -2.579300000
  54    C       -1.973100000    -2.297900000    -1.821300000
  55    C       -1.738900000    -3.018800000    -0.594800000
  56    C        3.181200000    -1.420200000    -0.594800000
  57    C        2.946900000    -0.699300000    -1.821300000
  58    C        1.954700000    -1.420200000    -2.579300000
  59    C        1.575700000    -2.586600000    -1.821300000
  60    C        2.333700000    -2.586600000    -0.594800000


           Empirical Formula: C60  =    60 atoms



      MOLECULAR POINT GROUP   :   Ih  


                  EIGENVALUES  
 -35.54114 -34.74462 -34.74440 -34.74431 -33.18557 -33.18526 -33.18514 -33.18490
 -33.18486 -31.49355 -31.49346 -31.49334 -30.07681 -30.07663 -30.07631 -30.07618
 -27.92355 -27.92326 -27.92308 -27.92299 -27.92280 -26.94493 -26.94480 -26.94462
 -26.94457 -24.62631 -24.62627 -24.62605 -23.96267 -23.96259 -23.96237 -23.96218
 -23.96196 -23.45773 -23.45768 -23.45746 -21.23426 -21.23409 -21.23393 -21.23371
 -21.23357 -20.81188 -20.81154 -20.81133 -20.43106 -18.92129 -18.92116 -18.92113
 -18.92097 -18.04166 -18.04148 -18.04144 -18.04139 -18.04131 -17.34004 -17.33987
 -17.33976 -16.97991 -16.61101 -16.61097 -16.61077 -16.19851 -16.19842 -16.19835
 -16.09553 -16.09537 -16.09529 -16.09517 -15.43430 -15.43427 -15.43423 -15.43418
 -15.43411 -15.00620 -15.00591 -15.00590 -15.00315 -15.00310 -15.00305 -15.00291
 -14.71735 -14.71716 -14.71712 -14.71694 -14.71691 -14.22589 -14.22567 -14.22547
 -14.22543 -13.12557 -13.12547 -13.12540 -13.12535 -13.12520 -12.99293 -12.99283
 -12.99279 -12.99268 -12.99258 -12.94409 -12.94404 -12.94401 -12.58344 -12.58338
 -12.58317 -12.58310 -10.82909 -10.82899 -10.82898 -10.82891 -10.50431 -10.50419
 -10.50401 -10.50389 -10.50375  -9.57006  -9.56982  -9.56978  -9.56965  -9.56957
  -3.17047  -3.17040  -3.17019  -2.48755  -2.48744  -2.48728  -1.31255  -1.31237
  -1.31235  -1.31235  -1.31229  -1.07099  -1.07098  -1.07086  -0.40892  -0.40877
  -0.40865  -0.40864  -0.40863   0.15857   0.15867   0.15873   0.15878   0.74085
   0.74091   0.74092   0.74097   0.80980   0.80989   0.80990   1.44212   1.44218
   1.44218   1.44232   1.44245   1.44246   2.17189   2.17191   2.17194   2.17202
   2.17203   2.21276   2.21285   2.21286   2.21294   2.21298   2.63207   2.63211
   2.63212   2.71315   2.71324   2.71327   2.71336   2.88060   2.88063   2.88064
   2.88067   3.11268   3.11272   3.11274   3.11277   3.11279   3.16335   3.16344
   3.16353   3.31364   3.31373   3.31383   3.31394   3.31398   3.44713   3.44719
   3.44721   3.55509   3.55514   3.55515   3.55523   3.56070   3.56078   3.56091
   3.56099   3.62418   3.62433   3.62440   3.67135   3.67150   3.67172   3.67315
   3.67317   3.67324   3.82530   3.87183   3.87196   3.87203   3.87204   3.87209
   3.95181   3.95193   3.95200   3.97939   3.97953   3.97954   3.97961   3.98549
   3.98553   3.98555   3.98566   3.98566   4.12207   4.12211   4.12219   4.18981
   4.18987   4.18996   4.19001   4.25659   4.25670   4.25675   4.25675   4.25679


              NET ATOMIC CHARGES AND DIPOLE CONTRIBUTIONS

  ATOM NO.   TYPE          CHARGE      No. of ELECS.   s-Pop       p-Pop       
    1          C           0.000019        4.0000     1.07027     2.92971
    2          C          -0.000031        4.0000     1.07029     2.92974
    3          C           0.000002        4.0000     1.07029     2.92970
    4          C           0.000002        4.0000     1.07029     2.92970
    5          C          -0.000031        4.0000     1.07029     2.92974
    6          C          -0.000002        4.0000     1.07030     2.92970
    7          C           0.000012        4.0000     1.07031     2.92968
    8          C          -0.000021        4.0000     1.07027     2.92975
    9          C           0.000012        4.0000     1.07031     2.92968
   10          C          -0.000001        4.0000     1.07030     2.92970
   11          C          -0.000005        4.0000     1.07029     2.92971
   12          C          -0.000004        4.0000     1.07030     2.92970
   13          C           0.000029        4.0000     1.07031     2.92966
   14          C          -0.000011        4.0000     1.07032     2.92969
   15          C           0.000017        4.0000     1.07030     2.92968
   16          C           0.000003        4.0000     1.07030     2.92970
   17          C           0.000003        4.0000     1.07032     2.92968
   18          C          -0.000003        4.0000     1.07029     2.92971
   19          C           0.000013        4.0000     1.07031     2.92968
   20          C          -0.000021        4.0000     1.07029     2.92973
   21          C          -0.000021        4.0000     1.07029     2.92973
   22          C           0.000012        4.0000     1.07031     2.92968
   23          C          -0.000003        4.0000     1.07029     2.92971
   24          C           0.000002        4.0000     1.07032     2.92968
   25          C           0.000003        4.0000     1.07030     2.92970
   26          C           0.000017        4.0000     1.07030     2.92968
   27          C          -0.000011        4.0000     1.07032     2.92969
   28          C           0.000029        4.0000     1.07031     2.92966
   29          C          -0.000004        4.0000     1.07030     2.92970
   30          C          -0.000006        4.0000     1.07029     2.92971
   31          C           0.000002        4.0000     1.07029     2.92970
   32          C          -0.000031        4.0000     1.07029     2.92974
   33          C           0.000019        4.0000     1.07027     2.92971
   34          C          -0.000031        4.0000     1.07029     2.92974
   35          C           0.000002        4.0000     1.07029     2.92970
   36          C          -0.000021        4.0000     1.07029     2.92973
   37          C           0.000012        4.0000     1.07031     2.92968
   38          C          -0.000003        4.0000     1.07029     2.92971
   39          C           0.000002        4.0000     1.07032     2.92968
   40          C           0.000003        4.0000     1.07030     2.92970
   41          C           0.000017        4.0000     1.07030     2.92968
   42          C          -0.000011        4.0000     1.07032     2.92969
   43          C           0.000029        4.0000     1.07031     2.92966
   44          C          -0.000004        4.0000     1.07030     2.92970
   45          C          -0.000006        4.0000     1.07029     2.92971
   46          C          -0.000002        4.0000     1.07030     2.92970
   47          C           0.000012        4.0000     1.07031     2.92968
   48          C          -0.000021        4.0000     1.07027     2.92975
   49          C           0.000012        4.0000     1.07031     2.92968
   50          C          -0.000001        4.0000     1.07030     2.92970
   51          C          -0.000005        4.0000     1.07029     2.92971
   52          C          -0.000004        4.0000     1.07030     2.92970
   53          C           0.000029        4.0000     1.07031     2.92966
   54          C          -0.000011        4.0000     1.07032     2.92969
   55          C           0.000017        4.0000     1.07030     2.92968
   56          C           0.000003        4.0000     1.07030     2.92970
   57          C           0.000003        4.0000     1.07032     2.92968
   58          C          -0.000003        4.0000     1.07029     2.92971
   59          C           0.000013        4.0000     1.07031     2.92968
   60          C          -0.000021        4.0000     1.07029     2.92973
 DIPOLE           X         Y         Z       TOTAL
 POINT-CHG.    -0.000    -0.000    -0.000     0.000
 HYBRID         0.000     0.000     0.000     0.000
 SUM           -0.000    -0.000    -0.000     0.000


          ATOMIC ORBITAL ELECTRON POPULATIONS

     Atom    s        px        py        pz   
    1  C   1.07027   0.96265   0.96643   1.00063
    2  C   1.07029   0.96607   0.96301   1.00066
    3  C   1.07029   0.96395   0.96512   1.00063
    4  C   1.07029   0.96395   0.96512   1.00063
    5  C   1.07029   0.96607   0.96301   1.00066
    6  C   1.07030   0.99854   0.96512   0.96604
    7  C   1.07031   0.99170   0.96300   0.97497
    8  C   1.07027   0.98657   0.96644   0.97675
    9  C   1.07031   0.99170   0.96300   0.97497
   10  C   1.07030   0.99854   0.96512   0.96604
   11  C   1.07029   0.96628   0.99739   0.96605
   12  C   1.07030   0.96140   0.99332   0.97498
   13  C   1.07031   0.96834   0.98460   0.97672
   14  C   1.07032   0.97010   0.98462   0.97498
   15  C   1.07030   0.97033   0.99331   0.96604
   16  C   1.07030   0.99028   0.97338   0.96604
   17  C   1.07032   0.98883   0.96588   0.97497
   18  C   1.07029   0.97960   0.97338   0.97674
   19  C   1.07031   0.97476   0.97995   0.97497
   20  C   1.07029   0.98371   0.97997   0.96605
   21  C   1.07029   0.98371   0.97997   0.96605
   22  C   1.07031   0.97476   0.97995   0.97497
   23  C   1.07029   0.97960   0.97338   0.97673
   24  C   1.07032   0.98883   0.96588   0.97497
   25  C   1.07030   0.99028   0.97338   0.96604
   26  C   1.07030   0.97033   0.99331   0.96604
   27  C   1.07032   0.97010   0.98462   0.97498
   28  C   1.07031   0.96834   0.98460   0.97672
   29  C   1.07030   0.96140   0.99332   0.97498
   30  C   1.07029   0.96628   0.99739   0.96605
   31  C   1.07029   0.96395   0.96512   1.00063
   32  C   1.07029   0.96607   0.96301   1.00066
   33  C   1.07027   0.96265   0.96643   1.00063
   34  C   1.07029   0.96607   0.96301   1.00066
   35  C   1.07029   0.96395   0.96512   1.00063
   36  C   1.07029   0.98371   0.97997   0.96605
   37  C   1.07031   0.97476   0.97995   0.97497
   38  C   1.07029   0.97960   0.97338   0.97673
   39  C   1.07032   0.98883   0.96588   0.97497
   40  C   1.07030   0.99028   0.97338   0.96604
   41  C   1.07030   0.97033   0.99331   0.96604
   42  C   1.07032   0.97010   0.98462   0.97498
   43  C   1.07031   0.96834   0.98460   0.97672
   44  C   1.07030   0.96140   0.99332   0.97498
   45  C   1.07029   0.96628   0.99739   0.96605
   46  C   1.07030   0.99854   0.96512   0.96604
   47  C   1.07031   0.99170   0.96300   0.97497
   48  C   1.07027   0.98657   0.96644   0.97675
   49  C   1.07031   0.99170   0.96300   0.97497
   50  C   1.07030   0.99854   0.96512   0.96604
   51  C   1.07029   0.96628   0.99739   0.96605
   52  C   1.07030   0.96140   0.99332   0.97498
   53  C   1.07031   0.96834   0.98460   0.97672
   54  C   1.07032   0.97010   0.98462   0.97498
   55  C   1.07030   0.97033   0.99331   0.96604
   56  C   1.07030   0.99028   0.97338   0.96604
   57  C   1.07032   0.98883   0.96588   0.97497
   58  C   1.07029   0.97960   0.97338   0.97674
   59  C   1.07031   0.97476   0.97995   0.97497
   60  C   1.07029   0.98371   0.97997   0.96605

          BONDING CONTRIBUTION OF EACH M.O.

  1.9053  1.9091  1.9091  1.9091  1.9183  1.9183  1.9183  1.9183  1.9183  1.9318
  1.9318  1.9318  1.9327  1.9327  1.9327  1.9327  1.9515  1.9515  1.9515  1.9515
  1.9515  1.9464  1.9464  1.9464  1.9464  1.9873  1.9873  1.9873  1.9315  1.9315
  1.9315  1.9315  1.9315  2.0161  2.0161  2.0161  1.9885  1.9885  1.9885  1.9885
  1.9885  1.9591  1.9590  1.9590  2.0748  2.0162  2.0162  2.0162  2.0162  1.9991
  1.9991  1.9991  1.9991  1.9991  2.0480  2.0480  2.0480  1.9528  2.0538  2.0538
  2.0538  1.9619  1.9619  1.9619  2.0408  2.0408  2.0408  2.0408  2.0655  2.0655
  2.0655  2.0655  2.0655  2.0452  2.0452  2.0452  2.0513  2.0513  2.0513  2.0513
  1.9727  1.9727  1.9727  1.9727  1.9727  2.0656  2.0656  2.0656  2.0656  2.0654
  2.0654  2.0654  2.0654  2.0654  2.0688  2.0688  2.0688  2.0688  2.0688  1.9823
  1.9823  1.9823  1.9848  1.9848  1.9849  1.9849  1.9905  1.9905  1.9905  1.9905
  1.9905  1.9905  1.9906  1.9906  1.9906  1.9932  1.9932  1.9932  1.9932  1.9932
 -2.0080 -2.0080 -2.0080 -2.0065 -2.0065 -2.0065 -2.0190 -2.0190 -2.0190 -2.0190
 -2.0190 -2.0251 -2.0251 -2.0251 -2.0195 -2.0195 -2.0195 -2.0195 -2.0195 -2.0343
 -2.0343 -2.0343 -2.0343 -2.0683 -2.0683 -2.0683 -2.0683 -2.0695 -2.0695 -2.0695
 -1.9465 -1.9465 -1.9465 -1.9331 -1.9331 -1.9331 -1.9328 -1.9328 -1.9328 -1.9328
 -1.9328 -1.9649 -1.9649 -1.9649 -1.9649 -1.9649 -1.9363 -1.9363 -1.9363 -1.9823
 -1.9823 -1.9823 -1.9823 -1.9483 -1.9482 -1.9482 -1.9482 -1.9470 -1.9470 -1.9470
 -1.9470 -1.9470 -2.0270 -2.0270 -2.0270 -2.0308 -2.0308 -2.0308 -2.0308 -2.0308
 -1.9490 -1.9489 -1.9489 -2.0185 -2.0185 -2.0185 -2.0185 -1.9590 -1.9590 -1.9590
 -1.9589 -1.9604 -1.9603 -1.9603 -2.0190 -2.0189 -2.0189 -1.9990 -1.9990 -1.9991
 -1.9328 -2.0307 -2.0306 -2.0307 -2.0307 -2.0306 -2.0119 -2.0119 -2.0119 -2.0143
 -2.0143 -2.0143 -2.0143 -2.0049 -2.0049 -2.0049 -2.0049 -2.0049 -2.0034 -2.0034
 -2.0034 -2.0033 -2.0033 -2.0033 -2.0033 -1.9956 -1.9956 -1.9956 -1.9956 -1.9956





            (VALENCIES)   BOND ORDERS

     1  C     (3.991)     8  C 1.486     5  C 1.148     2  C 1.148    14  C 0.051    27  C 0.051     6  C 0.011
                         18  C 0.011    23  C 0.011    10  C 0.011
 
     2  C     (3.991)    13  C 1.486     3  C 1.148     1  C 1.148    19  C 0.051     7  C 0.051    23  C 0.011
                         11  C 0.011    15  C 0.011    28  C 0.011
 
     3  C     (3.991)    18  C 1.486     4  C 1.148     2  C 1.148    12  C 0.051    24  C 0.051    28  C 0.011
                          8  C 0.011    16  C 0.011    20  C 0.011
 
     4  C     (3.991)    23  C 1.486     5  C 1.148     3  C 1.148    29  C 0.051    17  C 0.051    13  C 0.011
                          8  C 0.011    25  C 0.011    21  C 0.011
 
     5  C     (3.991)    28  C 1.486     4  C 1.148     1  C 1.148    22  C 0.051     9  C 0.051    18  C 0.011
                         13  C 0.011    26  C 0.011    30  C 0.011
 
     6  C     (3.991)    40  C 1.486     7  C 1.148    10  C 1.148    15  C 0.051    57  C 0.051     1  C 0.011
                         38  C 0.011    37  C 0.011    27  C 0.011
 
     7  C     (3.991)    14  C 1.486     6  C 1.148     8  C 1.148     2  C 0.051    36  C 0.051    27  C 0.011
                         12  C 0.011    56  C 0.011    11  C 0.011
 
     8  C     (3.991)     1  C 1.486     7  C 1.148     9  C 1.148    13  C 0.051    28  C 0.051     3  C 0.011
                          4  C 0.011    40  C 0.011    56  C 0.011
 
     9  C     (3.991)    27  C 1.486     8  C 1.148    10  C 1.148     5  C 0.051    60  C 0.051    29  C 0.011
                         14  C 0.011    40  C 0.011    30  C 0.011
 
    10  C     (3.991)    56  C 1.486     6  C 1.148     9  C 1.148    26  C 0.051    39  C 0.051     1  C 0.011
                         58  C 0.011    14  C 0.011    59  C 0.011
 
    11  C     (3.991)    45  C 1.486    12  C 1.148    15  C 1.148    37  C 0.051    20  C 0.051    43  C 0.011
                         42  C 0.011     7  C 0.011     2  C 0.011
 
    12  C     (3.991)    19  C 1.486    11  C 1.148    13  C 1.148     3  C 0.051    41  C 0.051    17  C 0.011
                          7  C 0.011    16  C 0.011    36  C 0.011
 
    13  C     (3.991)     2  C 1.486    12  C 1.148    14  C 1.148    18  C 0.051     8  C 0.051     4  C 0.011
                         45  C 0.011    36  C 0.011     5  C 0.011
 
    14  C     (3.991)     7  C 1.486    13  C 1.148    15  C 1.148     1  C 0.051    40  C 0.051     9  C 0.011
                         19  C 0.011    10  C 0.011    45  C 0.011
 
    15  C     (3.991)    36  C 1.486    11  C 1.148    14  C 1.148     6  C 0.051    44  C 0.051    38  C 0.011
                         39  C 0.011     2  C 0.011    19  C 0.011
 
    16  C     (3.991)    50  C 1.486    17  C 1.148    20  C 1.148    25  C 0.051    42  C 0.051    47  C 0.011
                          3  C 0.011    48  C 0.011    12  C 0.011
 
    17  C     (3.991)    24  C 1.486    16  C 1.148    18  C 1.148     4  C 0.051    46  C 0.051    22  C 0.011
                         12  C 0.011    41  C 0.011    21  C 0.011
 
    18  C     (3.991)     3  C 1.486    17  C 1.148    19  C 1.148    13  C 0.051    23  C 0.051     5  C 0.011
                          1  C 0.011    41  C 0.011    50  C 0.011
 
    19  C     (3.991)    12  C 1.486    18  C 1.148    20  C 1.148     2  C 0.051    45  C 0.051    24  C 0.011
                         14  C 0.011    15  C 0.011    50  C 0.011
 
    20  C     (3.991)    41  C 1.486    16  C 1.148    19  C 1.148    49  C 0.051    11  C 0.051    43  C 0.011
                          3  C 0.011    24  C 0.011    44  C 0.011
 
    21  C     (3.991)    55  C 1.486    22  C 1.148    25  C 1.148    47  C 0.051    30  C 0.051    53  C 0.011
                         17  C 0.011     4  C 0.011    52  C 0.011
 
    22  C     (3.991)    29  C 1.486    21  C 1.148    23  C 1.148     5  C 0.051    51  C 0.051    17  C 0.011
                         27  C 0.011    46  C 0.011    26  C 0.011
 
    23  C     (3.991)     4  C 1.486    22  C 1.148    24  C 1.148    28  C 0.051    18  C 0.051     1  C 0.011
                          2  C 0.011    55  C 0.011    46  C 0.011
 
    24  C     (3.991)    17  C 1.486    23  C 1.148    25  C 1.148     3  C 0.051    50  C 0.051    19  C 0.011
                         29  C 0.011    55  C 0.011    20  C 0.011
 
    25  C     (3.991)    46  C 1.486    21  C 1.148    24  C 1.148    16  C 0.051    54  C 0.051     4  C 0.011
                         49  C 0.011    48  C 0.011    29  C 0.011
 
    26  C     (3.991)    60  C 1.486    27  C 1.148    30  C 1.148    10  C 0.051    52  C 0.051    57  C 0.011
                         58  C 0.011    22  C 0.011     5  C 0.011
 
    27  C     (3.991)     9  C 1.486    26  C 1.148    28  C 1.148     1  C 0.051    56  C 0.051     7  C 0.011
                         22  C 0.011    51  C 0.011     6  C 0.011
 
    28  C     (3.991)     5  C 1.486    27  C 1.148    29  C 1.148    23  C 0.051     8  C 0.051     3  C 0.011
                         51  C 0.011    60  C 0.011     2  C 0.011
 
    29  C     (3.991)    22  C 1.486    28  C 1.148    30  C 1.148     4  C 0.051    55  C 0.051    24  C 0.011
                          9  C 0.011    25  C 0.011    60  C 0.011
 
    30  C     (3.991)    51  C 1.486    26  C 1.148    29  C 1.148    59  C 0.051    21  C 0.051    53  C 0.011
                          5  C 0.011    54  C 0.011     9  C 0.011
 
    31  C     (3.991)    38  C 1.486    35  C 1.148    32  C 1.148    44  C 0.051    57  C 0.051    53  C 0.011
                         48  C 0.011    40  C 0.011    36  C 0.011
 
    32  C     (3.991)    43  C 1.486    33  C 1.148    31  C 1.148    37  C 0.051    49  C 0.051    58  C 0.011
                         53  C 0.011    41  C 0.011    45  C 0.011
 
    33  C     (3.991)    48  C 1.486    34  C 1.148    32  C 1.148    42  C 0.051    54  C 0.051    38  C 0.011
                         50  C 0.011    46  C 0.011    58  C 0.011
 
    34  C     (3.991)    53  C 1.486    35  C 1.148    33  C 1.148    59  C 0.051    47  C 0.051    38  C 0.011
                         51  C 0.011    55  C 0.011    43  C 0.011
 
    35  C     (3.991)    58  C 1.486    34  C 1.148    31  C 1.148    52  C 0.051    39  C 0.051    43  C 0.011
                         48  C 0.011    56  C 0.011    60  C 0.011
 
    36  C     (3.991)    15  C 1.486    37  C 1.148    40  C 1.148     7  C 0.051    45  C 0.051    13  C 0.011
                         31  C 0.011    57  C 0.011    12  C 0.011
 
    37  C     (3.991)    44  C 1.486    36  C 1.148    38  C 1.148    32  C 0.051    11  C 0.051    57  C 0.011
                         42  C 0.011     6  C 0.011    41  C 0.011
 
    38  C     (3.991)    31  C 1.486    37  C 1.148    39  C 1.148    43  C 0.051    58  C 0.051    15  C 0.011
                         34  C 0.011    33  C 0.011     6  C 0.011
 
    39  C     (3.991)    57  C 1.486    38  C 1.148    40  C 1.148    35  C 0.051    10  C 0.051    59  C 0.011
                         44  C 0.011    15  C 0.011    60  C 0.011
 
    40  C     (3.991)     6  C 1.486    36  C 1.148    39  C 1.148    14  C 0.051    56  C 0.051     9  C 0.011
                         31  C 0.011    44  C 0.011     8  C 0.011
 
    41  C     (3.991)    20  C 1.486    42  C 1.148    45  C 1.148    50  C 0.051    12  C 0.051    17  C 0.011
                         18  C 0.011    37  C 0.011    32  C 0.011
 
    42  C     (3.991)    49  C 1.486    41  C 1.148    43  C 1.148    16  C 0.051    33  C 0.051    37  C 0.011
                         47  C 0.011    46  C 0.011    11  C 0.011
 
    43  C     (3.991)    32  C 1.486    42  C 1.148    44  C 1.148    38  C 0.051    48  C 0.051    11  C 0.011
                         35  C 0.011    20  C 0.011    34  C 0.011
 
    44  C     (3.991)    37  C 1.486    43  C 1.148    45  C 1.148    31  C 0.051    15  C 0.051    39  C 0.011
                         49  C 0.011    40  C 0.011    20  C 0.011
 
    45  C     (3.991)    11  C 1.486    41  C 1.148    44  C 1.148    19  C 0.051    36  C 0.051    13  C 0.011
                         32  C 0.011    14  C 0.011    49  C 0.011
 
    46  C     (3.991)    25  C 1.486    47  C 1.148    50  C 1.148    55  C 0.051    17  C 0.051    23  C 0.011
                         33  C 0.011    42  C 0.011    22  C 0.011
 
    47  C     (3.991)    54  C 1.486    46  C 1.148    48  C 1.148    21  C 0.051    34  C 0.051    42  C 0.011
                         52  C 0.011    16  C 0.011    51  C 0.011
 
    48  C     (3.991)    33  C 1.486    47  C 1.148    49  C 1.148    43  C 0.051    53  C 0.051    31  C 0.011
                         35  C 0.011    16  C 0.011    25  C 0.011
 
    49  C     (3.991)    42  C 1.486    48  C 1.148    50  C 1.148    20  C 0.051    32  C 0.051    44  C 0.011
                         54  C 0.011    25  C 0.011    45  C 0.011
 
    50  C     (3.991)    16  C 1.486    46  C 1.148    49  C 1.148    41  C 0.051    24  C 0.051    33  C 0.011
                         18  C 0.011    19  C 0.011    54  C 0.011
 
    51  C     (3.991)    30  C 1.486    52  C 1.148    55  C 1.148    22  C 0.051    60  C 0.051    28  C 0.011
                         27  C 0.011    47  C 0.011    34  C 0.011
 
    52  C     (3.991)    59  C 1.486    51  C 1.148    53  C 1.148    35  C 0.051    26  C 0.051    57  C 0.011
                         47  C 0.011    56  C 0.011    21  C 0.011
 
    53  C     (3.991)    34  C 1.486    52  C 1.148    54  C 1.148    58  C 0.051    48  C 0.051    30  C 0.011
                         31  C 0.011    21  C 0.011    32  C 0.011
 
    54  C     (3.991)    47  C 1.486    53  C 1.148    55  C 1.148    25  C 0.051    33  C 0.051    49  C 0.011
                         59  C 0.011    50  C 0.011    30  C 0.011
 
    55  C     (3.991)    21  C 1.486    51  C 1.148    54  C 1.148    46  C 0.051    29  C 0.051    23  C 0.011
                         24  C 0.011    34  C 0.011    59  C 0.011
 
    56  C     (3.991)    10  C 1.486    57  C 1.148    60  C 1.148    27  C 0.051    40  C 0.051    35  C 0.011
                          7  C 0.011     8  C 0.011    52  C 0.011
 
    57  C     (3.991)    39  C 1.486    56  C 1.148    58  C 1.148    31  C 0.051     6  C 0.051    37  C 0.011
                         52  C 0.011    26  C 0.011    36  C 0.011
 
    58  C     (3.991)    35  C 1.486    57  C 1.148    59  C 1.148    53  C 0.051    38  C 0.051    26  C 0.011
                         33  C 0.011    32  C 0.011    10  C 0.011
 
    59  C     (3.991)    52  C 1.486    58  C 1.148    60  C 1.148    34  C 0.051    30  C 0.051    39  C 0.011
                         54  C 0.011    10  C 0.011    55  C 0.011
 
    60  C     (3.991)    26  C 1.486    56  C 1.148    59  C 1.148     9  C 0.051    51  C 0.051    28  C 0.011
                         35  C 0.011    39  C 0.011    29  C 0.011
 

 **********************
 *                    *
 * JOB ENDED NORMALLY *
 *                    *
 **********************



 TOTAL JOB TIME:             0.17 SECONDS

 == MOPAC DONE ==
