 *******************************************************************************
 ** Site#: 29116        For non-commercial use only    Version 18.025L 64BITS **
 *******************************************************************************
 ** Cite this program as: MOPAC2016, Version: 18.025L, James J. P. Stewart,   **
 ** Stewart Computational Chemistry, web: HTTP://OpenMOPAC.net. Days left: 218**
 *******************************************************************************
 **                                                                           **
 **                                MOPAC2016                                  **
 **                                                                           **
 *******************************************************************************

                              PM3 CALCULATION RESULTS


 *******************************************************************************
 *  CALCULATION DONE:                                Thu Jun 21 17:55:35 2018  *
 *  PM3        - The PM3 Hamiltonian to be used
 *  SINGLET    - SPIN STATE DEFINED AS A SINGLET
 *  MOZYME     - USE LOCALIZED M.O.s IN SOLVING THE SCF EQUATIONS
 *
 *
 *
 *                 CHARGE ON SYSTEM =    +1
 *
 *
 *
 *  EPS=  0.78 - USE ANDREAS KLAMT'S COSMO IMPLICIT SOLVATION MODEL
 *  1SCF       - DO 1 SCF AND THEN STOP 
 *  T=         - A TIME OF 172800.0 SECONDS REQUESTED
 *  DUMP=N     - RESTART FILE WRITTEN EVERY  7200.000 SECONDS
 *  AUX        - OUTPUT AUXILIARY INFORMATION
 *  VECTORS    - FINAL MOLECULAR ORBITALS TO BE PRINTED
 *  LARGE      - EXPANDED OUTPUT TO BE PRINTED
 *  ALLVEC     - PRINT ALL EIGENVECTORS
 *******************************************************************************
PM3 1SCF MOZYME charge=1 Singlet AUX VECTORS ALLVECS LARGE EPS=0.78


   ATOM   CHEMICAL          X               Y               Z
  NUMBER   SYMBOL      (ANGSTROMS)     (ANGSTROMS)     (ANGSTROMS)
 
     1       N         -8.90100000  *   4.12700000  *  -0.55500000   
     2       C         -8.60800000  *   3.13500000  *  -1.61800000   
     3       C         -7.11700000  *   2.96400000  *  -1.89700000   
     4       O         -6.63400000  *   1.84900000  *  -1.75800000   
     5       C         -9.43700000  *   3.39600000  *  -2.88900000   
     6       C        -10.91500000  *   3.13000000  *  -2.61100000   
     7       N        -11.80600000  *   3.40600000  *  -3.54300000   
     8       O        -11.26900000  *   2.70000000  *  -1.52400000   
     9       H         -8.93000000  *   2.16200000  *  -1.23900000   
    10       H         -9.31000000  *   4.41700000  *  -3.19300000   
    11       H         -9.10800000  *   2.71900000  *  -3.67900000   
    12       H        -11.57200000  *   3.79100000  *  -4.44400000   
    13       H        -12.75700000  *   3.18300000  *  -3.29400000   
    14       H         -8.33000000  *   3.95700000  *   0.26100000   
    15       H         -8.74000000  *   5.06800000  *  -0.88900000   
    16       H         -9.87700000  *   4.04100000  *  -0.29300000   
    17       N         -6.37900000  *   4.03100000  *  -2.22800000   
    18       C         -4.92300000  *   4.00200000  *  -2.45200000   
    19       C         -4.13600000  *   3.18700000  *  -1.40400000   
    20       O         -3.39100000  *   2.27400000  *  -1.76000000   
    21       C         -4.41100000  *   5.45000000  *  -2.61900000   
    22       C         -4.79500000  *   6.45000000  *  -1.49500000   
    23       C         -3.61200000  *   6.80300000  *  -0.59900000   
    24       C         -5.35100000  *   7.74800000  *  -2.08400000   
    25       H         -6.82100000  *   4.92300000  *  -2.39400000   
    26       H         -4.75000000  *   3.49400000  *  -3.40300000   
    27       H         -3.34000000  *   5.41400000  *  -2.67200000   
    28       H         -4.81300000  *   5.81700000  *  -3.56400000   
    29       H         -5.56800000  *   6.02200000  *  -0.85800000   
    30       H         -3.20700000  *   5.90500000  *  -0.14600000   
    31       H         -2.84100000  *   7.30400000  *  -1.18300000   
    32       H         -3.92900000  *   7.47700000  *   0.19700000   
    33       H         -4.60700000  *   8.20900000  *  -2.73600000   
    34       H         -6.25500000  *   7.54400000  *  -2.65700000   
    35       H         -5.59200000  *   8.44500000  *  -1.28100000   
    36       N         -4.35400000  *   3.45500000  *  -0.11100000   
    37       C         -3.69000000  *   2.73800000  *   0.98100000   
    38       C         -4.10200000  *   1.25600000  *   1.07400000   
    39       O         -3.29100000  *   0.40900000  *   1.44200000   
    40       C         -3.96400000  *   3.47200000  *   2.30200000   
    41       C         -2.82400000  *   3.33900000  *   3.29000000   
    42       C         -2.74600000  *   2.21700000  *   4.13800000   
    43       C         -1.82000000  *   4.32600000  *   3.33200000   
    44       C         -1.65700000  *   2.07600000  *   5.01800000   
    45       C         -0.72500000  *   4.18500000  *   4.20500000   
    46       C         -0.63900000  *   3.05300000  *   5.04300000   
    47       O          0.43300000  *   2.88100000  *   5.86100000   
    48       H         -4.93400000  *   4.24500000  *   0.12000000   
    49       H         -2.61500000  *   2.76800000  *   0.79600000   
    50       H         -4.11700000  *   4.51300000  *   2.09100000   
    51       H         -4.88600000  *   3.09600000  *   2.75000000   
    52       H         -3.51300000  *   1.45600000  *   4.10100000   
    53       H         -1.87700000  *   5.20000000  *   2.69500000   
    54       H         -1.57600000  *   1.22100000  *   5.66900000   
    55       H          0.03300000  *   4.95200000  *   4.23300000   
    56       H          1.18700000  *   3.39500000  *   5.56700000   
    57       N         -5.34200000  *   0.92500000  *   0.68900000   
    58       C         -5.85700000  *  -0.44900000  *   0.61300000   
    59       C         -5.08900000  *  -1.22100000  *  -0.47000000   
    60       O         -4.62100000  *  -2.33400000  *  -0.22600000   
    61       C         -7.38600000  *  -0.46600000  *   0.34300000   
    62       C         -8.19700000  *   0.54000000  *   1.19700000   
    63       C         -7.95900000  *  -1.88400000  *   0.50100000   
    64       C         -8.01900000  *   0.41200000  *   2.71500000   
    65       H         -5.90600000  *   1.65600000  *   0.28300000   
    66       H         -5.67000000  *  -0.94100000  *   1.56800000   
    67       H         -7.55400000  *  -0.19200000  *  -0.69700000   
    68       H         -7.90000000  *   1.53100000  *   0.91200000   
    69       H         -9.25700000  *   0.42400000  *   0.96400000   
    70       H         -7.50900000  *  -2.55500000  *  -0.23200000   
    71       H         -7.75900000  *  -2.27100000  *   1.50100000   
    72       H         -9.03600000  *  -1.87100000  *   0.33200000   
    73       H         -8.30600000  *  -0.58500000  *   3.04900000   
    74       H         -6.98300000  *   0.60600000  *   2.99500000   
    75       H         -8.65600000  *   1.14400000  *   3.21300000   
    76       N         -4.90700000  *  -0.60100000  *  -1.64500000   
    77       C         -4.12200000  *  -1.16700000  *  -2.74300000   
    78       C         -2.62900000  *  -1.32100000  *  -2.39000000   
    79       O         -1.98600000  *  -2.24000000  *  -2.88400000   
    80       C         -4.29200000  *  -0.31300000  *  -4.01300000   
    81       C         -4.24400000  *  -1.17100000  *  -5.29000000   
    82       C         -5.57600000  *  -1.86000000  *  -5.58500000   
    83       N         -6.53200000  *  -1.14600000  *  -6.15200000   
    84       O         -5.76900000  *  -3.04400000  *  -5.33500000   
    85       H         -5.32700000  *   0.31800000  *  -1.76300000   
    86       H         -4.51700000  *  -2.16200000  *  -2.94000000   
    87       H         -5.23800000  *   0.19100000  *  -3.96900000   
    88       H         -3.49200000  *   0.42900000  *  -4.05300000   
    89       H         -3.99300000  *  -0.53900000  *  -6.12000000   
    90       H         -3.45800000  *  -1.92300000  *  -5.20500000   
    91       H         -6.38900000  *  -0.18400000  *  -6.40800000   
    92       H         -7.39200000  *  -1.63500000  *  -6.33500000   
    93       N         -2.07400000  *  -0.45900000  *  -1.52800000   
    94       C         -0.71600000  *  -0.63100000  *  -0.99300000   
    95       C         -0.63100000  *  -1.76600000  *   0.04400000   
    96       O          0.29500000  *  -2.57900000  *  -0.00400000   
    97       C         -0.22100000  *   0.70300000  *  -0.41700000   
    98       C          1.14800000  *   0.65200000  *   0.19400000   
    99       C          2.31900000  *   0.66400000  *  -0.48200000   
   100       C          1.50800000  *   0.56400000  *   1.60600000   
   101       C          2.92800000  *   0.51500000  *   1.71000000   
   102       C          0.77900000  *   0.52400000  *   2.81200000   
   103       N          3.37100000  *   0.56000000  *   0.41100000   
   104       C          3.59900000  *   0.44500000  *   2.93800000   
   105       C          1.43900000  *   0.43300000  *   4.05300000   
   106       C          2.84200000  *   0.40700000  *   4.12000000   
   107       H         -2.62400000  *   0.34300000  *  -1.24200000   
   108       H         -0.05200000  *  -0.90800000  *  -1.81300000   
   109       H         -0.20600000  *   1.42500000  *  -1.21100000   
   110       H         -0.92100000  *   1.04400000  *   0.34400000   
   111       H          2.41200000  *   0.73300000  *  -1.55800000   
   112       H          4.36000000  *   0.53600000  *   0.15600000   
   113       H         -0.29900000  *   0.57100000  *   2.77300000   
   114       H          4.67900000  *   0.41800000  *   2.96100000   
   115       H          0.86200000  *   0.40000000  *   4.96600000   
   116       H          3.33400000  *   0.36000000  *   5.08100000   
   117       N         -1.60000000  *  -1.86000000  *   0.96700000   
   118       C         -1.64100000  *  -2.93200000  *   1.96300000   
   119       C         -1.84700000  *  -4.31900000  *   1.34200000   
   120       O         -1.14400000  *  -5.24800000  *   1.74200000   
   121       C         -2.71000000  *  -2.64500000  *   3.03300000   
   122       C         -2.30100000  *  -1.57900000  *   4.06900000   
   123       C         -3.47500000  *  -1.32300000  *   5.01800000   
   124       C         -1.09300000  *  -2.00700000  *   4.91400000   
   125       H         -2.31600000  *  -1.13700000  *   0.99400000   
   126       H         -0.66600000  *  -2.97800000  *   2.44500000   
   127       H         -3.60000000  *  -2.30800000  *   2.53700000   
   128       H         -2.92100000  *  -3.57100000  *   3.57200000   
   129       H         -2.06100000  *  -0.64900000  *   3.56000000   
   130       H         -4.34300000  *  -0.99200000  *   4.44900000   
   131       H         -3.72500000  *  -2.23700000  *   5.56000000   
   132       H         -3.21100000  *  -0.54900000  *   5.73900000   
   133       H         -1.27000000  *  -2.98900000  *   5.35400000   
   134       H         -0.19500000  *  -2.04500000  *   4.30000000   
   135       H         -0.92200000  *  -1.28600000  *   5.71200000   
   136       N         -2.75300000  *  -4.48100000  *   0.36000000   
   137       C         -3.02400000  *  -5.79100000  *  -0.26900000   
   138       C         -1.79600000  *  -6.42700000  *  -0.93700000   
   139       O         -1.71900000  *  -7.64800000  *  -1.03000000   
   140       C         -4.22400000  *  -5.69700000  *  -1.23200000   
   141       C         -3.93000000  *  -5.00900000  *  -2.57700000   
   142       C         -3.68200000  *  -5.98600000  *  -3.73600000   
   143       C         -3.49400000  *  -5.19900000  *  -5.03900000   
   144       N         -4.56300000  *  -5.48300000  *  -6.02300000   
   145       H         -3.32100000  *  -3.67500000  *   0.09700000   
   146       H         -3.30900000  *  -6.47800000  *   0.52900000   
   147       H         -4.56500000  *  -6.69400000  *  -1.43600000   
   148       H         -5.01900000  *  -5.14300000  *  -0.73100000   
   149       H         -4.76900000  *  -4.39000000  *  -2.83000000   
   150       H         -3.06200000  *  -4.36800000  *  -2.46900000   
   151       H         -2.79900000  *  -6.56200000  *  -3.53600000   
   152       H         -4.52400000  *  -6.67400000  *  -3.81800000   
   153       H         -3.50200000  *  -4.15000000  *  -4.81300000   
   154       H         -2.51100000  *  -5.43900000  *  -5.45700000   
   155       H         -4.62100000  *  -6.47400000  *  -6.21100000   
   156       H         -5.44200000  *  -5.12400000  *  -5.65700000   
   157       H         -4.38200000  *  -4.98300000  *  -6.88100000   
   158       N         -0.82800000  *  -5.60700000  *  -1.35500000   
   159       C          0.46600000  *  -6.01600000  *  -1.90500000   
   160       C          1.48100000  *  -6.46400000  *  -0.83200000   
   161       O          2.54500000  *  -6.97100000  *  -1.19400000   
   162       C          1.03300000  *  -4.83900000  *  -2.72400000   
   163       C          0.67200000  *  -4.90600000  *  -4.21000000   
   164       O         -0.53200000  *  -5.05100000  *  -4.52200000   
   165       O          1.62700000  *  -4.81500000  *  -5.01700000   
   166       H         -1.01000000  *  -4.61600000  *  -1.29100000   
   167       H          0.31900000  *  -6.86700000  *  -2.57400000   
   168       H          0.64400000  *  -3.92400000  *  -2.32000000   
   169       H          2.11600000  *  -4.83700000  *  -2.65000000   
   170       N          1.18500000  *  -6.27800000  *   0.46400000   
   171       C          2.06000000  *  -6.61800000  *   1.59300000   
   172       C          2.62800000  *  -5.41200000  *   2.35300000   
   173       O          3.49600000  *  -5.59400000  *   3.20800000   
   174       H          0.26500000  *  -5.90800000  *   0.69300000   
   175       H          1.48600000  *  -7.21400000  *   2.30400000   
   176       H          2.89700000  *  -7.22800000  *   1.25200000   
   177       N          2.17200000  *  -4.18700000  *   2.05500000   
   178       C          2.62600000  *  -2.96700000  *   2.72300000   
   179       C          4.15700000  *  -2.80200000  *   2.65400000   
   180       O          4.71000000  *  -2.82900000  *   1.55100000   
   181       H          1.48100000  *  -4.08900000  *   1.31900000   
   182       H          2.16400000  *  -2.10900000  *   2.23700000   
   183       H          2.28000000  *  -2.99700000  *   3.75300000   
   184       N          4.87100000  *  -2.65100000  *   3.79400000   
   185       C          6.33300000  *  -2.53300000  *   3.80600000   
   186       C          7.05800000  *  -3.72900000  *   3.16500000   
   187       O          8.13900000  *  -3.56200000  *   2.60100000   
   188       C          6.74000000  *  -2.38700000  *   5.27900000   
   189       C          5.46000000  *  -1.95200000  *   5.98700000   
   190       C          4.36200000  *  -2.61500000  *   5.16000000   
   191       H          6.61100000  *  -1.62600000  *   3.26700000   
   192       H          7.09100000  *  -3.32300000  *   5.67000000   
   193       H          7.53100000  *  -1.64700000  *   5.40300000   
   194       H          5.44300000  *  -2.30200000  *   7.00100000   
   195       H          5.35800000  *  -0.86700000  *   5.92900000   
   196       H          4.17300000  *  -3.60900000  *   5.51600000   
   197       H          3.44000000  *  -2.04200000  *   5.24600000   
   198       N          6.46300000  *  -4.92900000  *   3.20500000   
   199       C          7.04900000  *  -6.17900000  *   2.70400000   
   200       C          6.89700000  *  -6.36900000  *   1.18500000   
   201       O          7.02500000  *  -7.48800000  *   0.69700000   
   202       C          6.45800000  *  -7.37100000  *   3.47200000   
   203       O          6.76300000  *  -7.26400000  *   4.85000000   
   204       H          5.53500000  *  -4.99900000  *   3.61300000   
   205       H          8.12100000  *  -6.15900000  *   2.90300000   
   206       H          5.39300000  *  -7.38200000  *   3.34400000   
   207       H          6.88000000  *  -8.30200000  *   3.09300000   
   208       H          7.70700000  *  -7.39400000  *   4.97000000   
   209       N          6.63700000  *  -5.29000000  *   0.43400000   
   210       C          6.38900000  *  -5.31500000  *  -1.01500000   
   211       C          7.33200000  *  -4.40500000  *  -1.82300000   
   212       O          7.08200000  *  -4.12300000  *  -2.99300000   
   213       C          4.91400000  *  -4.99300000  *  -1.26500000   
   214       O          4.43100000  *  -5.74300000  *  -2.35800000   
   215       H          6.50900000  *  -4.41500000  *   0.93000000   
   216       H          6.56200000  *  -6.32900000  *  -1.37800000   
   217       H          4.34400000  *  -5.23600000  *  -0.38900000   
   218       H          4.77800000  *  -3.93400000  *  -1.45700000   
   219       H          3.71400000  *  -6.32400000  *  -1.98700000   
   220       N          8.41900000  *  -3.92000000  *  -1.20200000   
   221       C          9.45100000  *  -3.11600000  *  -1.87000000   
   222       C          8.98400000  *  -1.72500000  *  -2.31600000   
   223       O          9.53900000  *  -1.17700000  *  -3.26700000   
   224       H          8.57300000  *  -4.21000000  *  -0.24600000   
   225       H         10.29700000  *  -2.98700000  *  -1.19400000   
   226       H          9.80500000  *  -3.65200000  *  -2.75200000   
   227       N          7.95600000  *  -1.16400000  *  -1.66000000   
   228       C          7.28900000  *   0.08400000  *  -2.05400000   
   229       C          6.85500000  *   0.91600000  *  -0.82900000   
   230       O          6.22200000  *   0.36600000  *   0.07600000   
   231       C          6.11000000  *  -0.24300000  *  -2.99400000   
   232       C          5.04600000  *  -1.17100000  *  -2.37800000   
   233       C          3.92300000  *  -1.59200000  *  -3.33800000   
   234       N          4.25100000  *  -2.81100000  *  -4.10000000   
   235       C          4.85900000  *  -2.91400000  *  -5.27400000   
   236       N          5.28900000  *  -1.86400000  *  -5.93700000   
   237       N          5.03500000  *  -4.09500000  *  -5.80900000   
   238       H          7.57900000  *  -1.67600000  *  -0.87400000   
   239       H          8.00900000  *   0.66300000  *  -2.63000000   
   240       H          5.63400000  *   0.67800000  *  -3.26900000   
   241       H          6.52400000  *  -0.72000000  *  -3.88000000   
   242       H          5.53800000  *  -2.05900000  *  -2.03100000   
   243       H          4.57900000  *  -0.65200000  *  -1.54900000   
   244       H          3.03300000  *  -1.77400000  *  -2.76600000   
   245       H          3.66900000  *  -0.76500000  *  -4.00300000   
   246       H          3.96300000  *  -3.69400000  *  -3.69800000   
   247       H          5.15000000  *  -0.96200000  *  -5.52100000   
   248       H          5.76100000  *  -1.96200000  *  -6.81500000   
   249       H          4.64900000  *  -4.89400000  *  -5.32700000   
   250       H          5.50800000  *  -4.20500000  *  -6.68400000   
   251       N          7.15600000  *   2.23000000  *  -0.78000000   
   252       C          6.78200000  *   3.08800000  *   0.34500000   
   253       C          5.26100000  *   3.33100000  *   0.39500000   
   254       O          4.58600000  *   3.16500000  *  -0.62400000   
   255       C          7.55400000  *   4.39400000  *   0.11900000   
   256       C          7.67700000  *   4.47400000  *  -1.40100000   
   257       C          7.82000000  *   3.01000000  *  -1.81600000   
   258       H          7.10700000  *   2.62800000  *   1.27900000   
   259       H          7.00900000  *   5.23400000  *   0.50500000   
   260       H          8.54800000  *   4.30800000  *   0.56100000   
   261       H          6.80000000  *   4.91400000  *  -1.83600000   
   262       H          8.54000000  *   5.06600000  *  -1.70700000   
   263       H          7.34900000  *   2.84400000  *  -2.76600000   
   264       H          8.87600000  *   2.73900000  *  -1.85500000   
   265       N          4.71000000  *   3.73900000  *   1.55500000   
   266       C          3.28700000  *   4.03100000  *   1.68600000   
   267       C          2.90100000  *   5.30500000  *   0.91300000   
   268       O          3.68400000  *   6.25600000  *   0.87100000   
   269       C          3.03500000  *   4.19000000  *   3.18700000   
   270       C          4.38500000  *   4.65500000  *   3.72900000   
   271       C          5.39300000  *   3.94900000  *   2.82300000   
   272       H          2.71900000  *   3.18100000  *   1.31600000   
   273       H          2.27400000  *   4.92400000  *   3.37200000   
   274       H          2.78100000  *   3.22300000  *   3.61800000   
   275       H          4.48200000  *   5.72100000  *   3.65400000   
   276       H          4.51800000  *   4.37700000  *   4.77500000   
   277       H          6.26200000  *   4.56200000  *   2.68200000   
   278       H          5.66200000  *   2.98300000  *   3.25300000   
   279       N          1.68800000  *   5.36000000  *   0.33600000   
   280       C          1.18500000  *   6.54300000  *  -0.35300000   
   281       C          0.71500000  *   7.60700000  *   0.65500000   
   282       O         -0.12400000  *   7.32400000  *   1.51300000   
   283       C          0.04800000  *   6.01400000  *  -1.22900000   
   284       C         -0.51900000  *   4.85200000  *  -0.41200000   
   285       C          0.71600000  *   4.27500000  *   0.27200000   
   286       H          1.96100000  *   6.96600000  *  -0.99100000   
   287       H         -0.69700000  *   6.77000000  *  -1.38900000   
   288       H          0.46300000  *   5.63000000  *  -2.16200000   
   289       H         -1.23200000  *   5.20100000  *   0.31000000   
   290       H         -1.01900000  *   4.11400000  *  -1.04100000   
   291       H          0.47000000  *   3.93700000  *   1.26000000   
   292       H          1.12100000  *   3.46100000  *  -0.32900000   
   293       N          1.27100000  *   8.82200000  *   0.54900000   
   294       C          0.85200000  *  10.02700000  *   1.28500000   
   295       C         -0.40600000  *  10.65700000  *   0.68300000   
   296       O         -0.38700000  *  10.91600000  *  -0.54000000   
   297       C          1.97200000  *  11.07100000  *   1.28400000   
   298       O          3.12000000  *  10.54100000  *   1.91100000   
   299       O         -1.34100000  *  10.90300000  *   1.47300000   
   300       H          1.96900000  *   8.96100000  *  -0.16500000   
   301       H          0.60100000  *   9.76000000  *   2.31000000   
   302       H          2.21000000  *  11.33800000  *   0.27200000   
   303       H          1.63600000  *  11.95900000  *   1.82400000   
   304       H          2.83100000  *  10.04000000  *   2.67600000   
 


          CARTESIAN COORDINATES 

    NO.       ATOM           X           Y           Z

     1         N         -8.9010      4.1270     -0.5550
     2         C         -8.6080      3.1350     -1.6180
     3         C         -7.1170      2.9640     -1.8970
     4         O         -6.6340      1.8490     -1.7580
     5         C         -9.4370      3.3960     -2.8890
     6         C        -10.9150      3.1300     -2.6110
     7         N        -11.8060      3.4060     -3.5430
     8         O        -11.2690      2.7000     -1.5240
     9         H         -8.9300      2.1620     -1.2390
    10         H         -9.3100      4.4170     -3.1930
    11         H         -9.1080      2.7190     -3.6790
    12         H        -11.5720      3.7910     -4.4440
    13         H        -12.7570      3.1830     -3.2940
    14         H         -8.3300      3.9570      0.2610
    15         H         -8.7400      5.0680     -0.8890
    16         H         -9.8770      4.0410     -0.2930
    17         N         -6.3790      4.0310     -2.2280
    18         C         -4.9230      4.0020     -2.4520
    19         C         -4.1360      3.1870     -1.4040
    20         O         -3.3910      2.2740     -1.7600
    21         C         -4.4110      5.4500     -2.6190
    22         C         -4.7950      6.4500     -1.4950
    23         C         -3.6120      6.8030     -0.5990
    24         C         -5.3510      7.7480     -2.0840
    25         H         -6.8210      4.9230     -2.3940
    26         H         -4.7500      3.4940     -3.4030
    27         H         -3.3400      5.4140     -2.6720
    28         H         -4.8130      5.8170     -3.5640
    29         H         -5.5680      6.0220     -0.8580
    30         H         -3.2070      5.9050     -0.1460
    31         H         -2.8410      7.3040     -1.1830
    32         H         -3.9290      7.4770      0.1970
    33         H         -4.6070      8.2090     -2.7360
    34         H         -6.2550      7.5440     -2.6570
    35         H         -5.5920      8.4450     -1.2810
    36         N         -4.3540      3.4550     -0.1110
    37         C         -3.6900      2.7380      0.9810
    38         C         -4.1020      1.2560      1.0740
    39         O         -3.2910      0.4090      1.4420
    40         C         -3.9640      3.4720      2.3020
    41         C         -2.8240      3.3390      3.2900
    42         C         -2.7460      2.2170      4.1380
    43         C         -1.8200      4.3260      3.3320
    44         C         -1.6570      2.0760      5.0180
    45         C         -0.7250      4.1850      4.2050
    46         C         -0.6390      3.0530      5.0430
    47         O          0.4330      2.8810      5.8610
    48         H         -4.9340      4.2450      0.1200
    49         H         -2.6150      2.7680      0.7960
    50         H         -4.1170      4.5130      2.0910
    51         H         -4.8860      3.0960      2.7500
    52         H         -3.5130      1.4560      4.1010
    53         H         -1.8770      5.2000      2.6950
    54         H         -1.5760      1.2210      5.6690
    55         H          0.0330      4.9520      4.2330
    56         H          1.1870      3.3950      5.5670
    57         N         -5.3420      0.9250      0.6890
    58         C         -5.8570     -0.4490      0.6130
    59         C         -5.0890     -1.2210     -0.4700
    60         O         -4.6210     -2.3340     -0.2260
    61         C         -7.3860     -0.4660      0.3430
    62         C         -8.1970      0.5400      1.1970
    63         C         -7.9590     -1.8840      0.5010
    64         C         -8.0190      0.4120      2.7150
    65         H         -5.9060      1.6560      0.2830
    66         H         -5.6700     -0.9410      1.5680
    67         H         -7.5540     -0.1920     -0.6970
    68         H         -7.9000      1.5310      0.9120
    69         H         -9.2570      0.4240      0.9640
    70         H         -7.5090     -2.5550     -0.2320
    71         H         -7.7590     -2.2710      1.5010
    72         H         -9.0360     -1.8710      0.3320
    73         H         -8.3060     -0.5850      3.0490
    74         H         -6.9830      0.6060      2.9950
    75         H         -8.6560      1.1440      3.2130
    76         N         -4.9070     -0.6010     -1.6450
    77         C         -4.1220     -1.1670     -2.7430
    78         C         -2.6290     -1.3210     -2.3900
    79         O         -1.9860     -2.2400     -2.8840
    80         C         -4.2920     -0.3130     -4.0130
    81         C         -4.2440     -1.1710     -5.2900
    82         C         -5.5760     -1.8600     -5.5850
    83         N         -6.5320     -1.1460     -6.1520
    84         O         -5.7690     -3.0440     -5.3350
    85         H         -5.3270      0.3180     -1.7630
    86         H         -4.5170     -2.1620     -2.9400
    87         H         -5.2380      0.1910     -3.9690
    88         H         -3.4920      0.4290     -4.0530
    89         H         -3.9930     -0.5390     -6.1200
    90         H         -3.4580     -1.9230     -5.2050
    91         H         -6.3890     -0.1840     -6.4080
    92         H         -7.3920     -1.6350     -6.3350
    93         N         -2.0740     -0.4590     -1.5280
    94         C         -0.7160     -0.6310     -0.9930
    95         C         -0.6310     -1.7660      0.0440
    96         O          0.2950     -2.5790     -0.0040
    97         C         -0.2210      0.7030     -0.4170
    98         C          1.1480      0.6520      0.1940
    99         C          2.3190      0.6640     -0.4820
   100         C          1.5080      0.5640      1.6060
   101         C          2.9280      0.5150      1.7100
   102         C          0.7790      0.5240      2.8120
   103         N          3.3710      0.5600      0.4110
   104         C          3.5990      0.4450      2.9380
   105         C          1.4390      0.4330      4.0530
   106         C          2.8420      0.4070      4.1200
   107         H         -2.6240      0.3430     -1.2420
   108         H         -0.0520     -0.9080     -1.8130
   109         H         -0.2060      1.4250     -1.2110
   110         H         -0.9210      1.0440      0.3440
   111         H          2.4120      0.7330     -1.5580
   112         H          4.3600      0.5360      0.1560
   113         H         -0.2990      0.5710      2.7730
   114         H          4.6790      0.4180      2.9610
   115         H          0.8620      0.4000      4.9660
   116         H          3.3340      0.3600      5.0810
   117         N         -1.6000     -1.8600      0.9670
   118         C         -1.6410     -2.9320      1.9630
   119         C         -1.8470     -4.3190      1.3420
   120         O         -1.1440     -5.2480      1.7420
   121         C         -2.7100     -2.6450      3.0330
   122         C         -2.3010     -1.5790      4.0690
   123         C         -3.4750     -1.3230      5.0180
   124         C         -1.0930     -2.0070      4.9140
   125         H         -2.3160     -1.1370      0.9940
   126         H         -0.6660     -2.9780      2.4450
   127         H         -3.6000     -2.3080      2.5370
   128         H         -2.9210     -3.5710      3.5720
   129         H         -2.0610     -0.6490      3.5600
   130         H         -4.3430     -0.9920      4.4490
   131         H         -3.7250     -2.2370      5.5600
   132         H         -3.2110     -0.5490      5.7390
   133         H         -1.2700     -2.9890      5.3540
   134         H         -0.1950     -2.0450      4.3000
   135         H         -0.9220     -1.2860      5.7120
   136         N         -2.7530     -4.4810      0.3600
   137         C         -3.0240     -5.7910     -0.2690
   138         C         -1.7960     -6.4270     -0.9370
   139         O         -1.7190     -7.6480     -1.0300
   140         C         -4.2240     -5.6970     -1.2320
   141         C         -3.9300     -5.0090     -2.5770
   142         C         -3.6820     -5.9860     -3.7360
   143         C         -3.4940     -5.1990     -5.0390
   144         N         -4.5630     -5.4830     -6.0230
   145         H         -3.3210     -3.6750      0.0970
   146         H         -3.3090     -6.4780      0.5290
   147         H         -4.5650     -6.6940     -1.4360
   148         H         -5.0190     -5.1430     -0.7310
   149         H         -4.7690     -4.3900     -2.8300
   150         H         -3.0620     -4.3680     -2.4690
   151         H         -2.7990     -6.5620     -3.5360
   152         H         -4.5240     -6.6740     -3.8180
   153         H         -3.5020     -4.1500     -4.8130
   154         H         -2.5110     -5.4390     -5.4570
   155         H         -4.6210     -6.4740     -6.2110
   156         H         -5.4420     -5.1240     -5.6570
   157         H         -4.3820     -4.9830     -6.8810
   158         N         -0.8280     -5.6070     -1.3550
   159         C          0.4660     -6.0160     -1.9050
   160         C          1.4810     -6.4640     -0.8320
   161         O          2.5450     -6.9710     -1.1940
   162         C          1.0330     -4.8390     -2.7240
   163         C          0.6720     -4.9060     -4.2100
   164         O         -0.5320     -5.0510     -4.5220
   165         O          1.6270     -4.8150     -5.0170
   166         H         -1.0100     -4.6160     -1.2910
   167         H          0.3190     -6.8670     -2.5740
   168         H          0.6440     -3.9240     -2.3200
   169         H          2.1160     -4.8370     -2.6500
   170         N          1.1850     -6.2780      0.4640
   171         C          2.0600     -6.6180      1.5930
   172         C          2.6280     -5.4120      2.3530
   173         O          3.4960     -5.5940      3.2080
   174         H          0.2650     -5.9080      0.6930
   175         H          1.4860     -7.2140      2.3040
   176         H          2.8970     -7.2280      1.2520
   177         N          2.1720     -4.1870      2.0550
   178         C          2.6260     -2.9670      2.7230
   179         C          4.1570     -2.8020      2.6540
   180         O          4.7100     -2.8290      1.5510
   181         H          1.4810     -4.0890      1.3190
   182         H          2.1640     -2.1090      2.2370
   183         H          2.2800     -2.9970      3.7530
   184         N          4.8710     -2.6510      3.7940
   185         C          6.3330     -2.5330      3.8060
   186         C          7.0580     -3.7290      3.1650
   187         O          8.1390     -3.5620      2.6010
   188         C          6.7400     -2.3870      5.2790
   189         C          5.4600     -1.9520      5.9870
   190         C          4.3620     -2.6150      5.1600
   191         H          6.6110     -1.6260      3.2670
   192         H          7.0910     -3.3230      5.6700
   193         H          7.5310     -1.6470      5.4030
   194         H          5.4430     -2.3020      7.0010
   195         H          5.3580     -0.8670      5.9290
   196         H          4.1730     -3.6090      5.5160
   197         H          3.4400     -2.0420      5.2460
   198         N          6.4630     -4.9290      3.2050
   199         C          7.0490     -6.1790      2.7040
   200         C          6.8970     -6.3690      1.1850
   201         O          7.0250     -7.4880      0.6970
   202         C          6.4580     -7.3710      3.4720
   203         O          6.7630     -7.2640      4.8500
   204         H          5.5350     -4.9990      3.6130
   205         H          8.1210     -6.1590      2.9030
   206         H          5.3930     -7.3820      3.3440
   207         H          6.8800     -8.3020      3.0930
   208         H          7.7070     -7.3940      4.9700
   209         N          6.6370     -5.2900      0.4340
   210         C          6.3890     -5.3150     -1.0150
   211         C          7.3320     -4.4050     -1.8230
   212         O          7.0820     -4.1230     -2.9930
   213         C          4.9140     -4.9930     -1.2650
   214         O          4.4310     -5.7430     -2.3580
   215         H          6.5090     -4.4150      0.9300
   216         H          6.5620     -6.3290     -1.3780
   217         H          4.3440     -5.2360     -0.3890
   218         H          4.7780     -3.9340     -1.4570
   219         H          3.7140     -6.3240     -1.9870
   220         N          8.4190     -3.9200     -1.2020
   221         C          9.4510     -3.1160     -1.8700
   222         C          8.9840     -1.7250     -2.3160
   223         O          9.5390     -1.1770     -3.2670
   224         H          8.5730     -4.2100     -0.2460
   225         H         10.2970     -2.9870     -1.1940
   226         H          9.8050     -3.6520     -2.7520
   227         N          7.9560     -1.1640     -1.6600
   228         C          7.2890      0.0840     -2.0540
   229         C          6.8550      0.9160     -0.8290
   230         O          6.2220      0.3660      0.0760
   231         C          6.1100     -0.2430     -2.9940
   232         C          5.0460     -1.1710     -2.3780
   233         C          3.9230     -1.5920     -3.3380
   234         N          4.2510     -2.8110     -4.1000
   235         C          4.8590     -2.9140     -5.2740
   236         N          5.2890     -1.8640     -5.9370
   237         N          5.0350     -4.0950     -5.8090
   238         H          7.5790     -1.6760     -0.8740
   239         H          8.0090      0.6630     -2.6300
   240         H          5.6340      0.6780     -3.2690
   241         H          6.5240     -0.7200     -3.8800
   242         H          5.5380     -2.0590     -2.0310
   243         H          4.5790     -0.6520     -1.5490
   244         H          3.0330     -1.7740     -2.7660
   245         H          3.6690     -0.7650     -4.0030
   246         H          3.9630     -3.6940     -3.6980
   247         H          5.1500     -0.9620     -5.5210
   248         H          5.7610     -1.9620     -6.8150
   249         H          4.6490     -4.8940     -5.3270
   250         H          5.5080     -4.2050     -6.6840
   251         N          7.1560      2.2300     -0.7800
   252         C          6.7820      3.0880      0.3450
   253         C          5.2610      3.3310      0.3950
   254         O          4.5860      3.1650     -0.6240
   255         C          7.5540      4.3940      0.1190
   256         C          7.6770      4.4740     -1.4010
   257         C          7.8200      3.0100     -1.8160
   258         H          7.1070      2.6280      1.2790
   259         H          7.0090      5.2340      0.5050
   260         H          8.5480      4.3080      0.5610
   261         H          6.8000      4.9140     -1.8360
   262         H          8.5400      5.0660     -1.7070
   263         H          7.3490      2.8440     -2.7660
   264         H          8.8760      2.7390     -1.8550
   265         N          4.7100      3.7390      1.5550
   266         C          3.2870      4.0310      1.6860
   267         C          2.9010      5.3050      0.9130
   268         O          3.6840      6.2560      0.8710
   269         C          3.0350      4.1900      3.1870
   270         C          4.3850      4.6550      3.7290
   271         C          5.3930      3.9490      2.8230
   272         H          2.7190      3.1810      1.3160
   273         H          2.2740      4.9240      3.3720
   274         H          2.7810      3.2230      3.6180
   275         H          4.4820      5.7210      3.6540
   276         H          4.5180      4.3770      4.7750
   277         H          6.2620      4.5620      2.6820
   278         H          5.6620      2.9830      3.2530
   279         N          1.6880      5.3600      0.3360
   280         C          1.1850      6.5430     -0.3530
   281         C          0.7150      7.6070      0.6550
   282         O         -0.1240      7.3240      1.5130
   283         C          0.0480      6.0140     -1.2290
   284         C         -0.5190      4.8520     -0.4120
   285         C          0.7160      4.2750      0.2720
   286         H          1.9610      6.9660     -0.9910
   287         H         -0.6970      6.7700     -1.3890
   288         H          0.4630      5.6300     -2.1620
   289         H         -1.2320      5.2010      0.3100
   290         H         -1.0190      4.1140     -1.0410
   291         H          0.4700      3.9370      1.2600
   292         H          1.1210      3.4610     -0.3290
   293         N          1.2710      8.8220      0.5490
   294         C          0.8520     10.0270      1.2850
   295         C         -0.4060     10.6570      0.6830
   296         O         -0.3870     10.9160     -0.5400
   297         C          1.9720     11.0710      1.2840
   298         O          3.1200     10.5410      1.9110
   299         O         -1.3410     10.9030      1.4730
   300         H          1.9690      8.9610     -0.1650
   301         H          0.6010      9.7600      2.3100
   302         H          2.2100     11.3380      0.2720
   303         H          1.6360     11.9590      1.8240
   304         H          2.8310     10.0400      2.6760

  H: (PM3): J. J. P. STEWART, J. COMP. CHEM. 10, 209 (1989).
  C: (PM3): J. J. P. STEWART, J. COMP. CHEM. 10, 209 (1989).
  N: (PM3): J. J. P. STEWART, J. COMP. CHEM. 10, 209 (1989).
  O: (PM3): J. J. P. STEWART, J. COMP. CHEM. 10, 209 (1989).

           Empirical Formula: C98 H150 N27 O29  =   304 atoms



 SINGLET STATE CALCULATION

     Ion Atom No.  Type    Charge
 
    1       1      N       +1
    2     144      N       +1
    3     235      C       +1
 
    1     165      O       -1
    2     299      O       -1

          COMPUTED CHARGE ON SYSTEM: +1

 -------------------------------------------------------------------------------
 PM3 1SCF MOZYME charge=1 Singlet AUX VECTORS ALLVECS LARGE EPS=0.78




     1SCF WAS SPECIFIED, SO BFGS WAS NOT USED                 
     SCF FIELD WAS ACHIEVED                                   


                              PM3 CALCULATION
                                                       MOPAC2016 (Version: 18.025L)
                                                       Thu Jun 21 17:55:38 2018
                                                       No. of days remaining = 218




          FINAL HEAT OF FORMATION =       -696.83974 KCAL/MOL =   -2915.57746 KJ/MOL
          VAN DER WAALS AREA      =       1332.05 SQUARE ANGSTROMS


          TOTAL ENERGY            =     -26810.63013 EV
          ELECTRONIC ENERGY       =    -694442.91940 EV
          CORE-CORE REPULSION     =     667527.85750 EV
          DIELECTRIC ENERGY       =          1.63093 EV

          NO. OF FILLED LEVELS    =        425
          MOLECULAR WEIGHT        =       2170.4265

          MOLECULAR DIMENSIONS (Angstroms)

            Atom       Atom       Distance
            H   208    H    13    24.47329
            H   303    H   155    21.05911
            H   248    H   131    15.07448


          SCF CALCULATIONS        =          1
 
          WALL-CLOCK TIME         =          3.086 SECONDS
          COMPUTATION TIME        =          3.056 SECONDS




   ATOM   CHEMICAL          X               Y               Z
  NUMBER   SYMBOL      (ANGSTROMS)     (ANGSTROMS)     (ANGSTROMS)
 
     1       N         -8.90100000  *   4.12700000  *  -0.55500000   
     2       C         -8.60800000  *   3.13500000  *  -1.61800000   
     3       C         -7.11700000  *   2.96400000  *  -1.89700000   
     4       O         -6.63400000  *   1.84900000  *  -1.75800000   
     5       C         -9.43700000  *   3.39600000  *  -2.88900000   
     6       C        -10.91500000  *   3.13000000  *  -2.61100000   
     7       N        -11.80600000  *   3.40600000  *  -3.54300000   
     8       O        -11.26900000  *   2.70000000  *  -1.52400000   
     9       H         -8.93000000  *   2.16200000  *  -1.23900000   
    10       H         -9.31000000  *   4.41700000  *  -3.19300000   
    11       H         -9.10800000  *   2.71900000  *  -3.67900000   
    12       H        -11.57200000  *   3.79100000  *  -4.44400000   
    13       H        -12.75700000  *   3.18300000  *  -3.29400000   
    14       H         -8.33000000  *   3.95700000  *   0.26100000   
    15       H         -8.74000000  *   5.06800000  *  -0.88900000   
    16       H         -9.87700000  *   4.04100000  *  -0.29300000   
    17       N         -6.37900000  *   4.03100000  *  -2.22800000   
    18       C         -4.92300000  *   4.00200000  *  -2.45200000   
    19       C         -4.13600000  *   3.18700000  *  -1.40400000   
    20       O         -3.39100000  *   2.27400000  *  -1.76000000   
    21       C         -4.41100000  *   5.45000000  *  -2.61900000   
    22       C         -4.79500000  *   6.45000000  *  -1.49500000   
    23       C         -3.61200000  *   6.80300000  *  -0.59900000   
    24       C         -5.35100000  *   7.74800000  *  -2.08400000   
    25       H         -6.82100000  *   4.92300000  *  -2.39400000   
    26       H         -4.75000000  *   3.49400000  *  -3.40300000   
    27       H         -3.34000000  *   5.41400000  *  -2.67200000   
    28       H         -4.81300000  *   5.81700000  *  -3.56400000   
    29       H         -5.56800000  *   6.02200000  *  -0.85800000   
    30       H         -3.20700000  *   5.90500000  *  -0.14600000   
    31       H         -2.84100000  *   7.30400000  *  -1.18300000   
    32       H         -3.92900000  *   7.47700000  *   0.19700000   
    33       H         -4.60700000  *   8.20900000  *  -2.73600000   
    34       H         -6.25500000  *   7.54400000  *  -2.65700000   
    35       H         -5.59200000  *   8.44500000  *  -1.28100000   
    36       N         -4.35400000  *   3.45500000  *  -0.11100000   
    37       C         -3.69000000  *   2.73800000  *   0.98100000   
    38       C         -4.10200000  *   1.25600000  *   1.07400000   
    39       O         -3.29100000  *   0.40900000  *   1.44200000   
    40       C         -3.96400000  *   3.47200000  *   2.30200000   
    41       C         -2.82400000  *   3.33900000  *   3.29000000   
    42       C         -2.74600000  *   2.21700000  *   4.13800000   
    43       C         -1.82000000  *   4.32600000  *   3.33200000   
    44       C         -1.65700000  *   2.07600000  *   5.01800000   
    45       C         -0.72500000  *   4.18500000  *   4.20500000   
    46       C         -0.63900000  *   3.05300000  *   5.04300000   
    47       O          0.43300000  *   2.88100000  *   5.86100000   
    48       H         -4.93400000  *   4.24500000  *   0.12000000   
    49       H         -2.61500000  *   2.76800000  *   0.79600000   
    50       H         -4.11700000  *   4.51300000  *   2.09100000   
    51       H         -4.88600000  *   3.09600000  *   2.75000000   
    52       H         -3.51300000  *   1.45600000  *   4.10100000   
    53       H         -1.87700000  *   5.20000000  *   2.69500000   
    54       H         -1.57600000  *   1.22100000  *   5.66900000   
    55       H          0.03300000  *   4.95200000  *   4.23300000   
    56       H          1.18700000  *   3.39500000  *   5.56700000   
    57       N         -5.34200000  *   0.92500000  *   0.68900000   
    58       C         -5.85700000  *  -0.44900000  *   0.61300000   
    59       C         -5.08900000  *  -1.22100000  *  -0.47000000   
    60       O         -4.62100000  *  -2.33400000  *  -0.22600000   
    61       C         -7.38600000  *  -0.46600000  *   0.34300000   
    62       C         -8.19700000  *   0.54000000  *   1.19700000   
    63       C         -7.95900000  *  -1.88400000  *   0.50100000   
    64       C         -8.01900000  *   0.41200000  *   2.71500000   
    65       H         -5.90600000  *   1.65600000  *   0.28300000   
    66       H         -5.67000000  *  -0.94100000  *   1.56800000   
    67       H         -7.55400000  *  -0.19200000  *  -0.69700000   
    68       H         -7.90000000  *   1.53100000  *   0.91200000   
    69       H         -9.25700000  *   0.42400000  *   0.96400000   
    70       H         -7.50900000  *  -2.55500000  *  -0.23200000   
    71       H         -7.75900000  *  -2.27100000  *   1.50100000   
    72       H         -9.03600000  *  -1.87100000  *   0.33200000   
    73       H         -8.30600000  *  -0.58500000  *   3.04900000   
    74       H         -6.98300000  *   0.60600000  *   2.99500000   
    75       H         -8.65600000  *   1.14400000  *   3.21300000   
    76       N         -4.90700000  *  -0.60100000  *  -1.64500000   
    77       C         -4.12200000  *  -1.16700000  *  -2.74300000   
    78       C         -2.62900000  *  -1.32100000  *  -2.39000000   
    79       O         -1.98600000  *  -2.24000000  *  -2.88400000   
    80       C         -4.29200000  *  -0.31300000  *  -4.01300000   
    81       C         -4.24400000  *  -1.17100000  *  -5.29000000   
    82       C         -5.57600000  *  -1.86000000  *  -5.58500000   
    83       N         -6.53200000  *  -1.14600000  *  -6.15200000   
    84       O         -5.76900000  *  -3.04400000  *  -5.33500000   
    85       H         -5.32700000  *   0.31800000  *  -1.76300000   
    86       H         -4.51700000  *  -2.16200000  *  -2.94000000   
    87       H         -5.23800000  *   0.19100000  *  -3.96900000   
    88       H         -3.49200000  *   0.42900000  *  -4.05300000   
    89       H         -3.99300000  *  -0.53900000  *  -6.12000000   
    90       H         -3.45800000  *  -1.92300000  *  -5.20500000   
    91       H         -6.38900000  *  -0.18400000  *  -6.40800000   
    92       H         -7.39200000  *  -1.63500000  *  -6.33500000   
    93       N         -2.07400000  *  -0.45900000  *  -1.52800000   
    94       C         -0.71600000  *  -0.63100000  *  -0.99300000   
    95       C         -0.63100000  *  -1.76600000  *   0.04400000   
    96       O          0.29500000  *  -2.57900000  *  -0.00400000   
    97       C         -0.22100000  *   0.70300000  *  -0.41700000   
    98       C          1.14800000  *   0.65200000  *   0.19400000   
    99       C          2.31900000  *   0.66400000  *  -0.48200000   
   100       C          1.50800000  *   0.56400000  *   1.60600000   
   101       C          2.92800000  *   0.51500000  *   1.71000000   
   102       C          0.77900000  *   0.52400000  *   2.81200000   
   103       N          3.37100000  *   0.56000000  *   0.41100000   
   104       C          3.59900000  *   0.44500000  *   2.93800000   
   105       C          1.43900000  *   0.43300000  *   4.05300000   
   106       C          2.84200000  *   0.40700000  *   4.12000000   
   107       H         -2.62400000  *   0.34300000  *  -1.24200000   
   108       H         -0.05200000  *  -0.90800000  *  -1.81300000   
   109       H         -0.20600000  *   1.42500000  *  -1.21100000   
   110       H         -0.92100000  *   1.04400000  *   0.34400000   
   111       H          2.41200000  *   0.73300000  *  -1.55800000   
   112       H          4.36000000  *   0.53600000  *   0.15600000   
   113       H         -0.29900000  *   0.57100000  *   2.77300000   
   114       H          4.67900000  *   0.41800000  *   2.96100000   
   115       H          0.86200000  *   0.40000000  *   4.96600000   
   116       H          3.33400000  *   0.36000000  *   5.08100000   
   117       N         -1.60000000  *  -1.86000000  *   0.96700000   
   118       C         -1.64100000  *  -2.93200000  *   1.96300000   
   119       C         -1.84700000  *  -4.31900000  *   1.34200000   
   120       O         -1.14400000  *  -5.24800000  *   1.74200000   
   121       C         -2.71000000  *  -2.64500000  *   3.03300000   
   122       C         -2.30100000  *  -1.57900000  *   4.06900000   
   123       C         -3.47500000  *  -1.32300000  *   5.01800000   
   124       C         -1.09300000  *  -2.00700000  *   4.91400000   
   125       H         -2.31600000  *  -1.13700000  *   0.99400000   
   126       H         -0.66600000  *  -2.97800000  *   2.44500000   
   127       H         -3.60000000  *  -2.30800000  *   2.53700000   
   128       H         -2.92100000  *  -3.57100000  *   3.57200000   
   129       H         -2.06100000  *  -0.64900000  *   3.56000000   
   130       H         -4.34300000  *  -0.99200000  *   4.44900000   
   131       H         -3.72500000  *  -2.23700000  *   5.56000000   
   132       H         -3.21100000  *  -0.54900000  *   5.73900000   
   133       H         -1.27000000  *  -2.98900000  *   5.35400000   
   134       H         -0.19500000  *  -2.04500000  *   4.30000000   
   135       H         -0.92200000  *  -1.28600000  *   5.71200000   
   136       N         -2.75300000  *  -4.48100000  *   0.36000000   
   137       C         -3.02400000  *  -5.79100000  *  -0.26900000   
   138       C         -1.79600000  *  -6.42700000  *  -0.93700000   
   139       O         -1.71900000  *  -7.64800000  *  -1.03000000   
   140       C         -4.22400000  *  -5.69700000  *  -1.23200000   
   141       C         -3.93000000  *  -5.00900000  *  -2.57700000   
   142       C         -3.68200000  *  -5.98600000  *  -3.73600000   
   143       C         -3.49400000  *  -5.19900000  *  -5.03900000   
   144       N         -4.56300000  *  -5.48300000  *  -6.02300000   
   145       H         -3.32100000  *  -3.67500000  *   0.09700000   
   146       H         -3.30900000  *  -6.47800000  *   0.52900000   
   147       H         -4.56500000  *  -6.69400000  *  -1.43600000   
   148       H         -5.01900000  *  -5.14300000  *  -0.73100000   
   149       H         -4.76900000  *  -4.39000000  *  -2.83000000   
   150       H         -3.06200000  *  -4.36800000  *  -2.46900000   
   151       H         -2.79900000  *  -6.56200000  *  -3.53600000   
   152       H         -4.52400000  *  -6.67400000  *  -3.81800000   
   153       H         -3.50200000  *  -4.15000000  *  -4.81300000   
   154       H         -2.51100000  *  -5.43900000  *  -5.45700000   
   155       H         -4.62100000  *  -6.47400000  *  -6.21100000   
   156       H         -5.44200000  *  -5.12400000  *  -5.65700000   
   157       H         -4.38200000  *  -4.98300000  *  -6.88100000   
   158       N         -0.82800000  *  -5.60700000  *  -1.35500000   
   159       C          0.46600000  *  -6.01600000  *  -1.90500000   
   160       C          1.48100000  *  -6.46400000  *  -0.83200000   
   161       O          2.54500000  *  -6.97100000  *  -1.19400000   
   162       C          1.03300000  *  -4.83900000  *  -2.72400000   
   163       C          0.67200000  *  -4.90600000  *  -4.21000000   
   164       O         -0.53200000  *  -5.05100000  *  -4.52200000   
   165       O          1.62700000  *  -4.81500000  *  -5.01700000   
   166       H         -1.01000000  *  -4.61600000  *  -1.29100000   
   167       H          0.31900000  *  -6.86700000  *  -2.57400000   
   168       H          0.64400000  *  -3.92400000  *  -2.32000000   
   169       H          2.11600000  *  -4.83700000  *  -2.65000000   
   170       N          1.18500000  *  -6.27800000  *   0.46400000   
   171       C          2.06000000  *  -6.61800000  *   1.59300000   
   172       C          2.62800000  *  -5.41200000  *   2.35300000   
   173       O          3.49600000  *  -5.59400000  *   3.20800000   
   174       H          0.26500000  *  -5.90800000  *   0.69300000   
   175       H          1.48600000  *  -7.21400000  *   2.30400000   
   176       H          2.89700000  *  -7.22800000  *   1.25200000   
   177       N          2.17200000  *  -4.18700000  *   2.05500000   
   178       C          2.62600000  *  -2.96700000  *   2.72300000   
   179       C          4.15700000  *  -2.80200000  *   2.65400000   
   180       O          4.71000000  *  -2.82900000  *   1.55100000   
   181       H          1.48100000  *  -4.08900000  *   1.31900000   
   182       H          2.16400000  *  -2.10900000  *   2.23700000   
   183       H          2.28000000  *  -2.99700000  *   3.75300000   
   184       N          4.87100000  *  -2.65100000  *   3.79400000   
   185       C          6.33300000  *  -2.53300000  *   3.80600000   
   186       C          7.05800000  *  -3.72900000  *   3.16500000   
   187       O          8.13900000  *  -3.56200000  *   2.60100000   
   188       C          6.74000000  *  -2.38700000  *   5.27900000   
   189       C          5.46000000  *  -1.95200000  *   5.98700000   
   190       C          4.36200000  *  -2.61500000  *   5.16000000   
   191       H          6.61100000  *  -1.62600000  *   3.26700000   
   192       H          7.09100000  *  -3.32300000  *   5.67000000   
   193       H          7.53100000  *  -1.64700000  *   5.40300000   
   194       H          5.44300000  *  -2.30200000  *   7.00100000   
   195       H          5.35800000  *  -0.86700000  *   5.92900000   
   196       H          4.17300000  *  -3.60900000  *   5.51600000   
   197       H          3.44000000  *  -2.04200000  *   5.24600000   
   198       N          6.46300000  *  -4.92900000  *   3.20500000   
   199       C          7.04900000  *  -6.17900000  *   2.70400000   
   200       C          6.89700000  *  -6.36900000  *   1.18500000   
   201       O          7.02500000  *  -7.48800000  *   0.69700000   
   202       C          6.45800000  *  -7.37100000  *   3.47200000   
   203       O          6.76300000  *  -7.26400000  *   4.85000000   
   204       H          5.53500000  *  -4.99900000  *   3.61300000   
   205       H          8.12100000  *  -6.15900000  *   2.90300000   
   206       H          5.39300000  *  -7.38200000  *   3.34400000   
   207       H          6.88000000  *  -8.30200000  *   3.09300000   
   208       H          7.70700000  *  -7.39400000  *   4.97000000   
   209       N          6.63700000  *  -5.29000000  *   0.43400000   
   210       C          6.38900000  *  -5.31500000  *  -1.01500000   
   211       C          7.33200000  *  -4.40500000  *  -1.82300000   
   212       O          7.08200000  *  -4.12300000  *  -2.99300000   
   213       C          4.91400000  *  -4.99300000  *  -1.26500000   
   214       O          4.43100000  *  -5.74300000  *  -2.35800000   
   215       H          6.50900000  *  -4.41500000  *   0.93000000   
   216       H          6.56200000  *  -6.32900000  *  -1.37800000   
   217       H          4.34400000  *  -5.23600000  *  -0.38900000   
   218       H          4.77800000  *  -3.93400000  *  -1.45700000   
   219       H          3.71400000  *  -6.32400000  *  -1.98700000   
   220       N          8.41900000  *  -3.92000000  *  -1.20200000   
   221       C          9.45100000  *  -3.11600000  *  -1.87000000   
   222       C          8.98400000  *  -1.72500000  *  -2.31600000   
   223       O          9.53900000  *  -1.17700000  *  -3.26700000   
   224       H          8.57300000  *  -4.21000000  *  -0.24600000   
   225       H         10.29700000  *  -2.98700000  *  -1.19400000   
   226       H          9.80500000  *  -3.65200000  *  -2.75200000   
   227       N          7.95600000  *  -1.16400000  *  -1.66000000   
   228       C          7.28900000  *   0.08400000  *  -2.05400000   
   229       C          6.85500000  *   0.91600000  *  -0.82900000   
   230       O          6.22200000  *   0.36600000  *   0.07600000   
   231       C          6.11000000  *  -0.24300000  *  -2.99400000   
   232       C          5.04600000  *  -1.17100000  *  -2.37800000   
   233       C          3.92300000  *  -1.59200000  *  -3.33800000   
   234       N          4.25100000  *  -2.81100000  *  -4.10000000   
   235       C          4.85900000  *  -2.91400000  *  -5.27400000   
   236       N          5.28900000  *  -1.86400000  *  -5.93700000   
   237       N          5.03500000  *  -4.09500000  *  -5.80900000   
   238       H          7.57900000  *  -1.67600000  *  -0.87400000   
   239       H          8.00900000  *   0.66300000  *  -2.63000000   
   240       H          5.63400000  *   0.67800000  *  -3.26900000   
   241       H          6.52400000  *  -0.72000000  *  -3.88000000   
   242       H          5.53800000  *  -2.05900000  *  -2.03100000   
   243       H          4.57900000  *  -0.65200000  *  -1.54900000   
   244       H          3.03300000  *  -1.77400000  *  -2.76600000   
   245       H          3.66900000  *  -0.76500000  *  -4.00300000   
   246       H          3.96300000  *  -3.69400000  *  -3.69800000   
   247       H          5.15000000  *  -0.96200000  *  -5.52100000   
   248       H          5.76100000  *  -1.96200000  *  -6.81500000   
   249       H          4.64900000  *  -4.89400000  *  -5.32700000   
   250       H          5.50800000  *  -4.20500000  *  -6.68400000   
   251       N          7.15600000  *   2.23000000  *  -0.78000000   
   252       C          6.78200000  *   3.08800000  *   0.34500000   
   253       C          5.26100000  *   3.33100000  *   0.39500000   
   254       O          4.58600000  *   3.16500000  *  -0.62400000   
   255       C          7.55400000  *   4.39400000  *   0.11900000   
   256       C          7.67700000  *   4.47400000  *  -1.40100000   
   257       C          7.82000000  *   3.01000000  *  -1.81600000   
   258       H          7.10700000  *   2.62800000  *   1.27900000   
   259       H          7.00900000  *   5.23400000  *   0.50500000   
   260       H          8.54800000  *   4.30800000  *   0.56100000   
   261       H          6.80000000  *   4.91400000  *  -1.83600000   
   262       H          8.54000000  *   5.06600000  *  -1.70700000   
   263       H          7.34900000  *   2.84400000  *  -2.76600000   
   264       H          8.87600000  *   2.73900000  *  -1.85500000   
   265       N          4.71000000  *   3.73900000  *   1.55500000   
   266       C          3.28700000  *   4.03100000  *   1.68600000   
   267       C          2.90100000  *   5.30500000  *   0.91300000   
   268       O          3.68400000  *   6.25600000  *   0.87100000   
   269       C          3.03500000  *   4.19000000  *   3.18700000   
   270       C          4.38500000  *   4.65500000  *   3.72900000   
   271       C          5.39300000  *   3.94900000  *   2.82300000   
   272       H          2.71900000  *   3.18100000  *   1.31600000   
   273       H          2.27400000  *   4.92400000  *   3.37200000   
   274       H          2.78100000  *   3.22300000  *   3.61800000   
   275       H          4.48200000  *   5.72100000  *   3.65400000   
   276       H          4.51800000  *   4.37700000  *   4.77500000   
   277       H          6.26200000  *   4.56200000  *   2.68200000   
   278       H          5.66200000  *   2.98300000  *   3.25300000   
   279       N          1.68800000  *   5.36000000  *   0.33600000   
   280       C          1.18500000  *   6.54300000  *  -0.35300000   
   281       C          0.71500000  *   7.60700000  *   0.65500000   
   282       O         -0.12400000  *   7.32400000  *   1.51300000   
   283       C          0.04800000  *   6.01400000  *  -1.22900000   
   284       C         -0.51900000  *   4.85200000  *  -0.41200000   
   285       C          0.71600000  *   4.27500000  *   0.27200000   
   286       H          1.96100000  *   6.96600000  *  -0.99100000   
   287       H         -0.69700000  *   6.77000000  *  -1.38900000   
   288       H          0.46300000  *   5.63000000  *  -2.16200000   
   289       H         -1.23200000  *   5.20100000  *   0.31000000   
   290       H         -1.01900000  *   4.11400000  *  -1.04100000   
   291       H          0.47000000  *   3.93700000  *   1.26000000   
   292       H          1.12100000  *   3.46100000  *  -0.32900000   
   293       N          1.27100000  *   8.82200000  *   0.54900000   
   294       C          0.85200000  *  10.02700000  *   1.28500000   
   295       C         -0.40600000  *  10.65700000  *   0.68300000   
   296       O         -0.38700000  *  10.91600000  *  -0.54000000   
   297       C          1.97200000  *  11.07100000  *   1.28400000   
   298       O          3.12000000  *  10.54100000  *   1.91100000   
   299       O         -1.34100000  *  10.90300000  *   1.47300000   
   300       H          1.96900000  *   8.96100000  *  -0.16500000   
   301       H          0.60100000  *   9.76000000  *   2.31000000   
   302       H          2.21000000  *  11.33800000  *   0.27200000   
   303       H          1.63600000  *  11.95900000  *   1.82400000   
   304       H          2.83100000  *  10.04000000  *   2.67600000   

                             CARTESIAN COORDINATES

   1    N       -8.901000000     4.127000000    -0.555000000
   2    C       -8.608000000     3.135000000    -1.618000000
   3    C       -7.117000000     2.964000000    -1.897000000
   4    O       -6.634000000     1.849000000    -1.758000000
   5    C       -9.437000000     3.396000000    -2.889000000
   6    C      -10.915000000     3.130000000    -2.611000000
   7    N      -11.806000000     3.406000000    -3.543000000
   8    O      -11.269000000     2.700000000    -1.524000000
   9    H       -8.930000000     2.162000000    -1.239000000
  10    H       -9.310000000     4.417000000    -3.193000000
  11    H       -9.108000000     2.719000000    -3.679000000
  12    H      -11.572000000     3.791000000    -4.444000000
  13    H      -12.757000000     3.183000000    -3.294000000
  14    H       -8.330000000     3.957000000     0.261000000
  15    H       -8.740000000     5.068000000    -0.889000000
  16    H       -9.877000000     4.041000000    -0.293000000
  17    N       -6.379000000     4.031000000    -2.228000000
  18    C       -4.923000000     4.002000000    -2.452000000
  19    C       -4.136000000     3.187000000    -1.404000000
  20    O       -3.391000000     2.274000000    -1.760000000
  21    C       -4.411000000     5.450000000    -2.619000000
  22    C       -4.795000000     6.450000000    -1.495000000
  23    C       -3.612000000     6.803000000    -0.599000000
  24    C       -5.351000000     7.748000000    -2.084000000
  25    H       -6.821000000     4.923000000    -2.394000000
  26    H       -4.750000000     3.494000000    -3.403000000
  27    H       -3.340000000     5.414000000    -2.672000000
  28    H       -4.813000000     5.817000000    -3.564000000
  29    H       -5.568000000     6.022000000    -0.858000000
  30    H       -3.207000000     5.905000000    -0.146000000
  31    H       -2.841000000     7.304000000    -1.183000000
  32    H       -3.929000000     7.477000000     0.197000000
  33    H       -4.607000000     8.209000000    -2.736000000
  34    H       -6.255000000     7.544000000    -2.657000000
  35    H       -5.592000000     8.445000000    -1.281000000
  36    N       -4.354000000     3.455000000    -0.111000000
  37    C       -3.690000000     2.738000000     0.981000000
  38    C       -4.102000000     1.256000000     1.074000000
  39    O       -3.291000000     0.409000000     1.442000000
  40    C       -3.964000000     3.472000000     2.302000000
  41    C       -2.824000000     3.339000000     3.290000000
  42    C       -2.746000000     2.217000000     4.138000000
  43    C       -1.820000000     4.326000000     3.332000000
  44    C       -1.657000000     2.076000000     5.018000000
  45    C       -0.725000000     4.185000000     4.205000000
  46    C       -0.639000000     3.053000000     5.043000000
  47    O        0.433000000     2.881000000     5.861000000
  48    H       -4.934000000     4.245000000     0.120000000
  49    H       -2.615000000     2.768000000     0.796000000
  50    H       -4.117000000     4.513000000     2.091000000
  51    H       -4.886000000     3.096000000     2.750000000
  52    H       -3.513000000     1.456000000     4.101000000
  53    H       -1.877000000     5.200000000     2.695000000
  54    H       -1.576000000     1.221000000     5.669000000
  55    H        0.033000000     4.952000000     4.233000000
  56    H        1.187000000     3.395000000     5.567000000
  57    N       -5.342000000     0.925000000     0.689000000
  58    C       -5.857000000    -0.449000000     0.613000000
  59    C       -5.089000000    -1.221000000    -0.470000000
  60    O       -4.621000000    -2.334000000    -0.226000000
  61    C       -7.386000000    -0.466000000     0.343000000
  62    C       -8.197000000     0.540000000     1.197000000
  63    C       -7.959000000    -1.884000000     0.501000000
  64    C       -8.019000000     0.412000000     2.715000000
  65    H       -5.906000000     1.656000000     0.283000000
  66    H       -5.670000000    -0.941000000     1.568000000
  67    H       -7.554000000    -0.192000000    -0.697000000
  68    H       -7.900000000     1.531000000     0.912000000
  69    H       -9.257000000     0.424000000     0.964000000
  70    H       -7.509000000    -2.555000000    -0.232000000
  71    H       -7.759000000    -2.271000000     1.501000000
  72    H       -9.036000000    -1.871000000     0.332000000
  73    H       -8.306000000    -0.585000000     3.049000000
  74    H       -6.983000000     0.606000000     2.995000000
  75    H       -8.656000000     1.144000000     3.213000000
  76    N       -4.907000000    -0.601000000    -1.645000000
  77    C       -4.122000000    -1.167000000    -2.743000000
  78    C       -2.629000000    -1.321000000    -2.390000000
  79    O       -1.986000000    -2.240000000    -2.884000000
  80    C       -4.292000000    -0.313000000    -4.013000000
  81    C       -4.244000000    -1.171000000    -5.290000000
  82    C       -5.576000000    -1.860000000    -5.585000000
  83    N       -6.532000000    -1.146000000    -6.152000000
  84    O       -5.769000000    -3.044000000    -5.335000000
  85    H       -5.327000000     0.318000000    -1.763000000
  86    H       -4.517000000    -2.162000000    -2.940000000
  87    H       -5.238000000     0.191000000    -3.969000000
  88    H       -3.492000000     0.429000000    -4.053000000
  89    H       -3.993000000    -0.539000000    -6.120000000
  90    H       -3.458000000    -1.923000000    -5.205000000
  91    H       -6.389000000    -0.184000000    -6.408000000
  92    H       -7.392000000    -1.635000000    -6.335000000
  93    N       -2.074000000    -0.459000000    -1.528000000
  94    C       -0.716000000    -0.631000000    -0.993000000
  95    C       -0.631000000    -1.766000000     0.044000000
  96    O        0.295000000    -2.579000000    -0.004000000
  97    C       -0.221000000     0.703000000    -0.417000000
  98    C        1.148000000     0.652000000     0.194000000
  99    C        2.319000000     0.664000000    -0.482000000
 100    C        1.508000000     0.564000000     1.606000000
 101    C        2.928000000     0.515000000     1.710000000
 102    C        0.779000000     0.524000000     2.812000000
 103    N        3.371000000     0.560000000     0.411000000
 104    C        3.599000000     0.445000000     2.938000000
 105    C        1.439000000     0.433000000     4.053000000
 106    C        2.842000000     0.407000000     4.120000000
 107    H       -2.624000000     0.343000000    -1.242000000
 108    H       -0.052000000    -0.908000000    -1.813000000
 109    H       -0.206000000     1.425000000    -1.211000000
 110    H       -0.921000000     1.044000000     0.344000000
 111    H        2.412000000     0.733000000    -1.558000000
 112    H        4.360000000     0.536000000     0.156000000
 113    H       -0.299000000     0.571000000     2.773000000
 114    H        4.679000000     0.418000000     2.961000000
 115    H        0.862000000     0.400000000     4.966000000
 116    H        3.334000000     0.360000000     5.081000000
 117    N       -1.600000000    -1.860000000     0.967000000
 118    C       -1.641000000    -2.932000000     1.963000000
 119    C       -1.847000000    -4.319000000     1.342000000
 120    O       -1.144000000    -5.248000000     1.742000000
 121    C       -2.710000000    -2.645000000     3.033000000
 122    C       -2.301000000    -1.579000000     4.069000000
 123    C       -3.475000000    -1.323000000     5.018000000
 124    C       -1.093000000    -2.007000000     4.914000000
 125    H       -2.316000000    -1.137000000     0.994000000
 126    H       -0.666000000    -2.978000000     2.445000000
 127    H       -3.600000000    -2.308000000     2.537000000
 128    H       -2.921000000    -3.571000000     3.572000000
 129    H       -2.061000000    -0.649000000     3.560000000
 130    H       -4.343000000    -0.992000000     4.449000000
 131    H       -3.725000000    -2.237000000     5.560000000
 132    H       -3.211000000    -0.549000000     5.739000000
 133    H       -1.270000000    -2.989000000     5.354000000
 134    H       -0.195000000    -2.045000000     4.300000000
 135    H       -0.922000000    -1.286000000     5.712000000
 136    N       -2.753000000    -4.481000000     0.360000000
 137    C       -3.024000000    -5.791000000    -0.269000000
 138    C       -1.796000000    -6.427000000    -0.937000000
 139    O       -1.719000000    -7.648000000    -1.030000000
 140    C       -4.224000000    -5.697000000    -1.232000000
 141    C       -3.930000000    -5.009000000    -2.577000000
 142    C       -3.682000000    -5.986000000    -3.736000000
 143    C       -3.494000000    -5.199000000    -5.039000000
 144    N       -4.563000000    -5.483000000    -6.023000000
 145    H       -3.321000000    -3.675000000     0.097000000
 146    H       -3.309000000    -6.478000000     0.529000000
 147    H       -4.565000000    -6.694000000    -1.436000000
 148    H       -5.019000000    -5.143000000    -0.731000000
 149    H       -4.769000000    -4.390000000    -2.830000000
 150    H       -3.062000000    -4.368000000    -2.469000000
 151    H       -2.799000000    -6.562000000    -3.536000000
 152    H       -4.524000000    -6.674000000    -3.818000000
 153    H       -3.502000000    -4.150000000    -4.813000000
 154    H       -2.511000000    -5.439000000    -5.457000000
 155    H       -4.621000000    -6.474000000    -6.211000000
 156    H       -5.442000000    -5.124000000    -5.657000000
 157    H       -4.382000000    -4.983000000    -6.881000000
 158    N       -0.828000000    -5.607000000    -1.355000000
 159    C        0.466000000    -6.016000000    -1.905000000
 160    C        1.481000000    -6.464000000    -0.832000000
 161    O        2.545000000    -6.971000000    -1.194000000
 162    C        1.033000000    -4.839000000    -2.724000000
 163    C        0.672000000    -4.906000000    -4.210000000
 164    O       -0.532000000    -5.051000000    -4.522000000
 165    O        1.627000000    -4.815000000    -5.017000000
 166    H       -1.010000000    -4.616000000    -1.291000000
 167    H        0.319000000    -6.867000000    -2.574000000
 168    H        0.644000000    -3.924000000    -2.320000000
 169    H        2.116000000    -4.837000000    -2.650000000
 170    N        1.185000000    -6.278000000     0.464000000
 171    C        2.060000000    -6.618000000     1.593000000
 172    C        2.628000000    -5.412000000     2.353000000
 173    O        3.496000000    -5.594000000     3.208000000
 174    H        0.265000000    -5.908000000     0.693000000
 175    H        1.486000000    -7.214000000     2.304000000
 176    H        2.897000000    -7.228000000     1.252000000
 177    N        2.172000000    -4.187000000     2.055000000
 178    C        2.626000000    -2.967000000     2.723000000
 179    C        4.157000000    -2.802000000     2.654000000
 180    O        4.710000000    -2.829000000     1.551000000
 181    H        1.481000000    -4.089000000     1.319000000
 182    H        2.164000000    -2.109000000     2.237000000
 183    H        2.280000000    -2.997000000     3.753000000
 184    N        4.871000000    -2.651000000     3.794000000
 185    C        6.333000000    -2.533000000     3.806000000
 186    C        7.058000000    -3.729000000     3.165000000
 187    O        8.139000000    -3.562000000     2.601000000
 188    C        6.740000000    -2.387000000     5.279000000
 189    C        5.460000000    -1.952000000     5.987000000
 190    C        4.362000000    -2.615000000     5.160000000
 191    H        6.611000000    -1.626000000     3.267000000
 192    H        7.091000000    -3.323000000     5.670000000
 193    H        7.531000000    -1.647000000     5.403000000
 194    H        5.443000000    -2.302000000     7.001000000
 195    H        5.358000000    -0.867000000     5.929000000
 196    H        4.173000000    -3.609000000     5.516000000
 197    H        3.440000000    -2.042000000     5.246000000
 198    N        6.463000000    -4.929000000     3.205000000
 199    C        7.049000000    -6.179000000     2.704000000
 200    C        6.897000000    -6.369000000     1.185000000
 201    O        7.025000000    -7.488000000     0.697000000
 202    C        6.458000000    -7.371000000     3.472000000
 203    O        6.763000000    -7.264000000     4.850000000
 204    H        5.535000000    -4.999000000     3.613000000
 205    H        8.121000000    -6.159000000     2.903000000
 206    H        5.393000000    -7.382000000     3.344000000
 207    H        6.880000000    -8.302000000     3.093000000
 208    H        7.707000000    -7.394000000     4.970000000
 209    N        6.637000000    -5.290000000     0.434000000
 210    C        6.389000000    -5.315000000    -1.015000000
 211    C        7.332000000    -4.405000000    -1.823000000
 212    O        7.082000000    -4.123000000    -2.993000000
 213    C        4.914000000    -4.993000000    -1.265000000
 214    O        4.431000000    -5.743000000    -2.358000000
 215    H        6.509000000    -4.415000000     0.930000000
 216    H        6.562000000    -6.329000000    -1.378000000
 217    H        4.344000000    -5.236000000    -0.389000000
 218    H        4.778000000    -3.934000000    -1.457000000
 219    H        3.714000000    -6.324000000    -1.987000000
 220    N        8.419000000    -3.920000000    -1.202000000
 221    C        9.451000000    -3.116000000    -1.870000000
 222    C        8.984000000    -1.725000000    -2.316000000
 223    O        9.539000000    -1.177000000    -3.267000000
 224    H        8.573000000    -4.210000000    -0.246000000
 225    H       10.297000000    -2.987000000    -1.194000000
 226    H        9.805000000    -3.652000000    -2.752000000
 227    N        7.956000000    -1.164000000    -1.660000000
 228    C        7.289000000     0.084000000    -2.054000000
 229    C        6.855000000     0.916000000    -0.829000000
 230    O        6.222000000     0.366000000     0.076000000
 231    C        6.110000000    -0.243000000    -2.994000000
 232    C        5.046000000    -1.171000000    -2.378000000
 233    C        3.923000000    -1.592000000    -3.338000000
 234    N        4.251000000    -2.811000000    -4.100000000
 235    C        4.859000000    -2.914000000    -5.274000000
 236    N        5.289000000    -1.864000000    -5.937000000
 237    N        5.035000000    -4.095000000    -5.809000000
 238    H        7.579000000    -1.676000000    -0.874000000
 239    H        8.009000000     0.663000000    -2.630000000
 240    H        5.634000000     0.678000000    -3.269000000
 241    H        6.524000000    -0.720000000    -3.880000000
 242    H        5.538000000    -2.059000000    -2.031000000
 243    H        4.579000000    -0.652000000    -1.549000000
 244    H        3.033000000    -1.774000000    -2.766000000
 245    H        3.669000000    -0.765000000    -4.003000000
 246    H        3.963000000    -3.694000000    -3.698000000
 247    H        5.150000000    -0.962000000    -5.521000000
 248    H        5.761000000    -1.962000000    -6.815000000
 249    H        4.649000000    -4.894000000    -5.327000000
 250    H        5.508000000    -4.205000000    -6.684000000
 251    N        7.156000000     2.230000000    -0.780000000
 252    C        6.782000000     3.088000000     0.345000000
 253    C        5.261000000     3.331000000     0.395000000
 254    O        4.586000000     3.165000000    -0.624000000
 255    C        7.554000000     4.394000000     0.119000000
 256    C        7.677000000     4.474000000    -1.401000000
 257    C        7.820000000     3.010000000    -1.816000000
 258    H        7.107000000     2.628000000     1.279000000
 259    H        7.009000000     5.234000000     0.505000000
 260    H        8.548000000     4.308000000     0.561000000
[...]
  172          C           0.217496        3.7825     1.20808     2.57442
  173          O          -0.453757        6.4538     1.86975     4.58400
  174          H           0.134895        0.8651     0.86511
  175          H           0.084044        0.9160     0.91596
  176          H           0.113410        0.8866     0.88659
  177          N           0.035628        4.9644     1.30212     3.66225
  178          C          -0.104307        4.1043     1.17137     2.93294
  179          C           0.246723        3.7533     1.20261     2.55067
  180          O          -0.433448        6.4334     1.87307     4.56038
  181          H           0.120680        0.8793     0.87932
  182          H           0.097337        0.9027     0.90266
  183          H           0.068461        0.9315     0.93154
  184          N           0.020534        4.9795     1.33112     3.64835
  185          C          -0.075002        4.0750     1.19409     2.88091
  186          C           0.222231        3.7778     1.20176     2.57601
  187          O          -0.435092        6.4351     1.87239     4.56270
  188          C          -0.098887        4.0989     1.16034     2.93854
  189          C          -0.115228        4.1152     1.16224     2.95299
  190          C          -0.082879        4.0829     1.16728     2.91560
  191          H           0.100089        0.8999     0.89991
  192          H           0.067499        0.9325     0.93250
  193          H           0.071604        0.9284     0.92840
  194          H           0.077680        0.9223     0.92232
  195          H           0.061323        0.9387     0.93868
  196          H           0.076307        0.9237     0.92369
  197          H           0.066313        0.9337     0.93369
  198          N           0.012584        4.9874     1.31188     3.67554
  199          C          -0.112937        4.1129     1.19929     2.91364
  200          C           0.212917        3.7871     1.20330     2.58378
  201          O          -0.389650        6.3896     1.87143     4.51822
  202          C           0.060503        3.9395     1.14990     2.78960
  203          O          -0.304412        6.3044     1.81290     4.49151
  204          H           0.136318        0.8637     0.86368
  205          H           0.091414        0.9086     0.90859
  206          H           0.089841        0.9102     0.91016
  207          H           0.063186        0.9368     0.93681
  208          H           0.181399        0.8186     0.81860
  209          N          -0.005175        5.0052     1.31306     3.69212
  210          C          -0.121368        4.1214     1.19806     2.92331
  211          C           0.235311        3.7647     1.20606     2.55863
  212          O          -0.447471        6.4475     1.87062     4.57685
  213          C           0.072233        3.9278     1.14358     2.78419
  214          O          -0.395373        6.3954     1.82403     4.57135
  215          H           0.115044        0.8850     0.88496
  216          H           0.138313        0.8617     0.86169
  217          H           0.041904        0.9581     0.95810
  218          H           0.028719        0.9713     0.97128
  219          H           0.272760        0.7272     0.72724
  220          N          -0.006856        5.0069     1.31366     3.69320
  221          C          -0.079084        4.0791     1.16826     2.91082
  222          C           0.215256        3.7847     1.20598     2.57876
  223          O          -0.401552        6.4016     1.87228     4.52927
  224          H           0.118070        0.8819     0.88193
  225          H           0.078680        0.9213     0.92132
  226          H           0.093408        0.9066     0.90659
  227          N           0.009376        4.9906     1.30551     3.68511
  228          C          -0.067211        4.0672     1.18861     2.87860
  229          C           0.239584        3.7604     1.19975     2.56066
  230          O          -0.441817        6.4418     1.86906     4.57276
  231          C          -0.106062        4.1061     1.16440     2.94166
  232          C          -0.144264        4.1443     1.16780     2.97646
  233          C          -0.086953        4.0870     1.17027     2.91668
  234          N           0.142577        4.8574     1.27450     3.58292
  235          C          -0.082177        4.0822     1.22042     2.86176
  236          N           0.099794        4.9002     1.23383     3.66638
  237          N           0.188229        4.8118     1.22503     3.58674
  238          H           0.112322        0.8877     0.88768
  239          H           0.102493        0.8975     0.89751
  240          H           0.056043        0.9440     0.94396
  241          H           0.054604        0.9454     0.94540
  242          H           0.095267        0.9047     0.90473
  243          H           0.083790        0.9162     0.91621
  244          H           0.093728        0.9063     0.90627
  245          H           0.050090        0.9499     0.94991
  246          H           0.154618        0.8454     0.84538
  247          H           0.089811        0.9102     0.91019
  248          H           0.088168        0.9118     0.91183
  249          H           0.133599        0.8664     0.86640
  250          H           0.077442        0.9226     0.92256
  251          N           0.061698        4.9383     1.32394     3.61436
  252          C          -0.082496        4.0825     1.19338     2.88911
  253          C           0.233945        3.7661     1.19929     2.56677
  254          O          -0.437453        6.4375     1.87394     4.56352
  255          C          -0.100936        4.1009     1.16225     2.93869
  256          C          -0.115084        4.1151     1.16165     2.95343
  257          C          -0.068225        4.0682     1.16615     2.90207
  258          H           0.088551        0.9114     0.91145
  259          H           0.094588        0.9054     0.90541
  260          H           0.065667        0.9343     0.93433
  261          H           0.082405        0.9176     0.91760
  262          H           0.073952        0.9260     0.92605
  263          H           0.062326        0.9377     0.93767
  264          H           0.063095        0.9369     0.93691
  265          N           0.057203        4.9428     1.32038     3.62242
  266          C          -0.091263        4.0913     1.19268     2.89859
  267          C           0.226547        3.7735     1.19676     2.57669
  268          O          -0.394009        6.3940     1.87339     4.52061
  269          C          -0.118005        4.1180     1.16328     2.95473
  270          C          -0.111550        4.1115     1.16112     2.95043
  271          C          -0.063636        4.0636     1.16527     2.89836
  272          H           0.098449        0.9016     0.90155
  273          H           0.078686        0.9213     0.92131
  274          H           0.067444        0.9326     0.93256
  275          H           0.086561        0.9134     0.91344
  276          H           0.062491        0.9375     0.93751
  277          H           0.065917        0.9341     0.93408
  278          H           0.054944        0.9451     0.94506
  279          N           0.043399        4.9566     1.32189     3.63471
  280          C          -0.080394        4.0804     1.19414     2.88625
  281          C           0.184287        3.8157     1.19924     2.61648
  282          O          -0.468555        6.4686     1.87289     4.59566
  283          C          -0.107584        4.1076     1.16208     2.94551
  284          C          -0.122772        4.1228     1.16322     2.95956
  285          C          -0.080122        4.0801     1.16667     2.91346
  286          H           0.094864        0.9051     0.90514
  287          H           0.080636        0.9194     0.91936
  288          H           0.053249        0.9468     0.94675
  289          H           0.071394        0.9286     0.92861
  290          H           0.034101        0.9659     0.96590
  291          H           0.060641        0.9394     0.93936
  292          H           0.065777        0.9342     0.93422
  293          N           0.136946        4.8631     1.29003     3.57303
  294          C          -0.224313        4.2243     1.22936     2.99496
  295          C           0.414338        3.5857     1.15433     2.43133
  296          O          -0.617092        6.6171     1.88247     4.73462
  297          C           0.073895        3.9261     1.14835     2.77775
  298          O          -0.334803        6.3348     1.81317     4.52163
  299          O          -0.587442        6.5874     1.88141     4.70604
  300          H           0.076739        0.9233     0.92326
  301          H           0.092338        0.9077     0.90766
  302          H           0.072799        0.9272     0.92720
  303          H           0.051117        0.9489     0.94888
  304          H           0.179365        0.8206     0.82063
 DIPOLE           X         Y         Z       TOTAL
 POINT-CHG.   -54.394   -11.351   -27.141    61.840
 HYBRID        -3.399     2.468    -0.584     4.241
 SUM          -57.793    -8.883   -27.725    64.712


          ATOMIC ORBITAL ELECTRON POPULATIONS

     Atom    s        px        py        pz   
    1  N   1.12827   1.05239   0.99302   1.00686
    2  C   1.23450   1.03628   1.05454   0.98474
    3  C   1.18660   0.85609   0.90495   0.85586
    4  O   1.86608   1.74200   1.27176   1.48650
    5  C   1.16337   0.96828   1.03667   0.95494
    6  C   1.19623   0.89250   0.84274   0.90670
    7  N   1.25411   1.00571   1.55813   1.06118
    8  O   1.87039   1.81258   1.47055   1.27758
    9  H   0.82382
   10  H   0.92360
   11  H   0.88777
   12  H   0.91636
   13  H   0.89397
   14  H   0.97016
   15  H   0.98588
   16  H   0.93858
   17  N   1.30813   1.00888   1.00378   1.63284
   18  C   1.20706   0.83584   1.02627   1.02370
   19  C   1.19830   0.84644   0.85700   0.87625
   20  O   1.87054   1.38133   1.31455   1.82236
   21  C   1.17208   1.05282   0.88541   1.00646
   22  C   1.18036   0.99369   0.95822   0.94891
   23  C   1.14674   0.97005   1.02180   1.00472
   24  C   1.14389   0.99167   0.95806   1.02160
   25  H   0.90224
   26  H   0.89956
   27  H   0.89476
   28  H   0.92793
   29  H   1.00145
   30  H   0.96382
   31  H   0.90181
   32  H   0.90833
   33  H   0.91483
   34  H   0.99467
   35  H   0.92438
   36  N   1.31614   1.44054   1.26693   0.97210
   37  C   1.20031   1.04816   0.92140   0.92900
   38  C   1.20276   0.85750   0.90522   0.79961
   39  O   1.86636   1.53099   1.54224   1.44769
   40  C   1.14375   0.98306   0.98224   0.91571
   41  C   1.18761   0.98262   1.00191   1.01074
   42  C   1.17575   0.97037   0.94900   0.94930
   43  C   1.18301   0.91822   0.96297   0.96528
   44  C   1.17664   0.95945   0.99214   1.01518
   45  C   1.19112   1.01162   0.98322   0.99993
   46  C   1.16855   0.88735   0.92902   0.89180
   47  O   1.78691   1.20999   1.70533   1.52149
   48  H   0.90882
   49  H   0.86333
   50  H   0.93944
   51  H   0.95909
   52  H   0.90115
   53  H   0.86407
   54  H   0.87976
   55  H   0.86282
   56  H   0.79046
   57  N   1.31785   1.09498   0.98767   1.61016
   58  C   1.19549   0.94319   0.90488   1.02426
   59  C   1.20387   0.82814   0.88106   0.86986
   60  O   1.86711   1.49284   1.23552   1.81276
   61  C   1.18556   0.92458   0.98926   0.99307
   62  C   1.16110   0.99277   0.94372   0.98286
   63  C   1.14165   1.00109   0.93470   1.03645
   64  C   1.13987   1.02037   1.03472   0.92412
   65  H   0.92143
   66  H   0.87745
   67  H   0.94566
   68  H   1.01050
   69  H   0.94393
   70  H   0.94324
   71  H   0.93494
   72  H   0.95221
   73  H   0.93187
   74  H   0.94644
   75  H   0.95546
   76  N   1.31619   1.47810   1.14231   1.06853
   77  C   1.19775   0.95951   1.02347   0.91284
   78  C   1.20091   0.88448   0.87472   0.84937
   79  O   1.87139   1.65554   1.33209   1.50381
   80  C   1.15899   1.01944   0.97666   0.92669
   81  C   1.16494   0.96454   1.02340   0.99016
   82  C   1.20475   0.89566   0.88543   0.79242
   83  N   1.26901   1.07142   1.03530   1.56404
   84  O   1.86640   1.83607   1.22399   1.57160
   85  H   0.88230
   86  H   0.89047
   87  H   0.95997
   88  H   0.90947
   89  H   0.93189
   90  H   0.88098
   91  H   0.92454
   92  H   0.92036
   93  N   1.30960   1.08095   1.19740   1.40276
   94  C   1.19436   0.91556   0.97537   0.99476
   95  C   1.20401   0.85618   0.86396   0.85119
   96  O   1.87158   1.36842   1.44229   1.74243
   97  C   1.13453   0.95363   0.93433   0.99410
   98  C   1.17721   0.93929   1.15281   0.92786
   99  C   1.20080   0.93797   1.06918   0.97952
  100  C   1.17228   0.93145   1.06527   0.92387
  101  C   1.19506   0.96080   1.07839   0.93811
  102  C   1.17520   0.98077   0.99732   0.91971
  103  N   1.24531   0.99221   1.51845   0.92910
  104  C   1.16886   0.98168   1.04294   0.90706
  105  C   1.18331   0.94899   1.03596   0.96607
  106  C   1.18083   0.94758   1.01887   0.96632
  107  H   0.89109
  108  H   0.88979
  109  H   0.94069
  110  H   0.93897
  111  H   0.86526
  112  H   0.86774
  113  H   0.90081
  114  H   0.88078
  115  H   0.88849
  116  H   0.89302
  117  N   1.31872   1.22667   1.20383   1.26046
  118  C   1.19271   1.04195   0.90496   0.94312
  119  C   1.20552   0.83826   0.90274   0.82858
  120  O   1.86794   1.46615   1.47754   1.61358
  121  C   1.16300   0.96656   1.00595   0.95739
  122  C   1.18037   0.96712   0.98929   0.96013
  123  C   1.14359   0.96984   1.01535   0.98643
  124  C   1.14291   0.96630   1.01374   0.99014
  125  H   0.86703
  126  H   0.89109
  127  H   0.94712
  128  H   0.92924
  129  H   0.92490
  130  H   0.97547
  131  H   0.95037
  132  H   0.94884
  133  H   0.94726
  134  H   0.95823
  135  H   0.94858
  136  N   1.32356   1.33948   1.03297   1.31940
  137  C   1.19718   0.97147   0.92779   0.98639
  138  C   1.19638   0.86949   0.90135   0.82728
  139  O   1.87164   1.79923   1.17403   1.55717
  140  C   1.16042   0.96848   1.01738   0.94321
  141  C   1.16689   1.03953   0.98709   0.94431
  142  C   1.16163   1.04840   0.97100   0.90861
  143  C   1.21389   1.00860   1.10632   0.99024
  144  N   1.13617   1.05155   0.98670   1.01770
  145  H   0.86744
  146  H   0.90119
  147  H   0.92617
  148  H   0.94299
  149  H   0.96134
  150  H   0.89260
  151  H   0.86899
  152  H   0.96349
  153  H   0.86559
  154  H   0.80076
  155  H   0.99151
  156  H   0.96267
  157  H   0.99769
  158  N   1.30623   1.06901   1.00010   1.58482
  159  C   1.18949   0.86960   1.03448   0.95664
  160  C   1.21339   0.88725   0.78238   0.88319
  161  O   1.85513   1.30479   1.45691   1.82546
  162  C   1.18706   1.02259   0.95214   1.05339
  163  C   1.14971   0.84290   0.71758   0.82149
  164  O   1.87717   1.26342   1.65358   1.87622
  165  O   1.88176   1.49751   1.63350   1.62161
  166  H   0.89778
  167  H   0.87766
  168  H   0.93426
  169  H   0.92345
  170  N   1.31716   1.12135   1.60390   0.96064
  171  C   1.16944   1.00997   0.97849   0.94235
  172  C   1.20808   0.83998   0.88784   0.84660
  173  O   1.86975   1.34302   1.87343   1.36756
  174  H   0.86511
  175  H   0.91596
  176  H   0.88659
  177  N   1.30212   1.37763   0.95189   1.33273
  178  C   1.17137   0.94934   0.96426   1.01934
  179  C   1.20261   0.89889   0.78218   0.86960
  180  O   1.87307   1.75640   1.49052   1.31347
  181  H   0.87932
  182  H   0.90266
  183  H   0.93154
  184  N   1.33112   0.96714   1.71086   0.97035
  185  C   1.19409   0.88905   1.00295   0.98891
  186  C   1.20176   0.87623   0.87984   0.81994
  187  O   1.87239   1.25777   1.86483   1.44010
  188  C   1.16034   0.97781   1.03271   0.92802
  189  C   1.16224   0.94724   1.00570   1.00005
  190  C   1.16728   0.99307   1.02969   0.89283
  191  H   0.89991
  192  H   0.93250
  193  H   0.92840
  194  H   0.92232
  195  H   0.93868
  196  H   0.92369
  197  H   0.93369
  198  N   1.31188   1.13994   0.97232   1.56327
  199  C   1.19929   1.02980   0.93397   0.94987
  200  C   1.20330   0.80099   0.88609   0.89670
  201  O   1.87143   1.47293   1.27646   1.76883
  202  C   1.14990   1.01588   0.94238   0.83134
  203  O   1.81290   1.30482   1.95608   1.23062
  204  H   0.86368
  205  H   0.90859
  206  H   0.91016
  207  H   0.93681
  208  H   0.81860
  209  N   1.31306   1.68803   1.03404   0.97005
  210  C   1.19806   0.98209   1.05022   0.89100
  211  C   1.20606   0.85933   0.81316   0.88614
  212  O   1.87062   1.76251   1.59501   1.21933
  213  C   1.14358   0.90122   0.95250   0.93046
  214  O   1.82403   1.62260   1.60519   1.34356
  215  H   0.88496
  216  H   0.86169
  217  H   0.95810
  218  H   0.97128
  219  H   0.72724
  220  N   1.31366   1.15662   1.46527   1.07131
  221  C   1.16826   0.95242   0.93371   1.02469
  222  C   1.20598   0.84082   0.88520   0.85275
  223  O   1.87228   1.56451   1.67348   1.29128
  224  H   0.88193
  225  H   0.92132
  226  H   0.90659
  227  N   1.30551   1.26805   1.14612   1.27094
  228  C   1.18861   0.97117   0.94767   0.95976
  229  C   1.19975   0.81756   0.86640   0.87671
  230  O   1.86906   1.40885   1.72973   1.43417
  231  C   1.16440   0.96096   0.99505   0.98565
  232  C   1.16780   0.96006   1.02431   0.99209
  233  C   1.17027   1.01377   0.92524   0.97767
  234  N   1.27450   1.48435   1.03105   1.06752
  235  C   1.22042   0.94781   0.95703   0.95693
  236  N   1.23383   1.56720   0.95950   1.13968
  237  N   1.22503   1.48739   0.95676   1.14259
  238  H   0.88768
  239  H   0.89751
  240  H   0.94396
  241  H   0.94540
  242  H   0.90473
  243  H   0.91621
  244  H   0.90627
  245  H   0.94991
  246  H   0.84538
  247  H   0.91019
  248  H   0.91183
  249  H   0.86640
  250  H   0.92256
  251  N   1.32394   1.51788   0.98708   1.10940
  252  C   1.19338   0.95549   0.96312   0.97050
  253  C   1.19929   0.89583   0.80348   0.86745
  254  O   1.87394   1.67822   1.52020   1.36510
  255  C   1.16225   0.99954   0.96494   0.97421
  256  C   1.16165   1.04581   0.94870   0.95892
  257  C   1.16615   0.99165   0.95297   0.95745
  258  H   0.91145
  259  H   0.90541
  260  H   0.93433
  261  H   0.91760
  262  H   0.92605
  263  H   0.93767
  264  H   0.93691
  265  N   1.32038   0.98790   1.62336   1.01116
  266  C   1.19268   0.92380   0.99574   0.97905
  267  C   1.19676   0.85930   0.89148   0.82592
  268  O   1.87339   1.52434   1.40953   1.58674
  269  C   1.16328   0.99433   1.02164   0.93876
  270  C   1.16112   0.93775   1.02904   0.98364
  271  C   1.16527   0.98946   1.00242   0.90648
  272  H   0.90155
  273  H   0.92131
  274  H   0.93256
  275  H   0.91344
  276  H   0.93751
  277  H   0.93408
  278  H   0.94506
  279  N   1.32189   1.07612   1.03716   1.52143
  280  C   1.19414   0.97568   0.93964   0.97092
  281  C   1.19924   0.85915   0.88793   0.86939
  282  O   1.87289   1.36659   1.82849   1.40058
  283  C   1.16208   0.99101   0.97676   0.97773
  284  C   1.16322   0.98275   0.97936   0.99745
  285  C   1.16667   0.93672   0.96441   1.01232
  286  H   0.90514
  287  H   0.91936
  288  H   0.94675
  289  H   0.92861
  290  H   0.96590
  291  H   0.93936
  292  H   0.93422
  293  N   1.29003   1.28948   0.98658   1.29697
  294  C   1.22936   1.05783   0.91171   1.02542
  295  C   1.15433   0.81266   0.76379   0.85488
  296  O   1.88247   1.87195   1.65239   1.21029
  297  C   1.14835   0.84736   0.94776   0.98263
  298  O   1.81317   1.33703   1.72742   1.45718
  299  O   1.88141   1.45054   1.63945   1.61605
  300  H   0.92326
  301  H   0.90766
  302  H   0.92720
  303  H   0.94888
  304  H   0.82063

 **********************
 *                    *
 * JOB ENDED NORMALLY *
 *                    *
 **********************



 TOTAL JOB TIME:             3.33 SECONDS

 == MOPAC DONE ==
