----- GAMESS execution script 'rungms' -----
This job is running on host marvin
under operating system Linux at Sun Dec 30 15:06:26 -03 2018
Available scratch disk space (Kbyte units) at beginning of the job is
Filesystem     1K-blocks      Used Available Use% Mounted on
/dev/sda1      476579864 135167364 317180616  30% /
GAMESS temporary binary files will be written to /home/igor/programs/scr
GAMESS supplementary output files will be written to /home/igor/programs/userscr
Copying input file amonia.inp to your run's scratch directory...
 
Assuming a single but multicore node.
 

 Distributed Data Interface kickoff program.
 Initiating 2 compute processes on 1 nodes to run the following command:
 /home/igor/programs/gamess/gamess.00.x amonia 

          ******************************************************
          *         GAMESS VERSION = 11 NOV 2017 (R3)         *
          *             FROM IOWA STATE UNIVERSITY             *
          * M.W.SCHMIDT, K.K.BALDRIDGE, J.A.BOATZ, S.T.ELBERT, *
          *   M.S.GORDON, J.H.JENSEN, S.KOSEKI, N.MATSUNAGA,   *
          *          K.A.NGUYEN, S.J.SU, T.L.WINDUS,           *
          *       TOGETHER WITH M.DUPUIS, J.A.MONTGOMERY       *
          *         J.COMPUT.CHEM.  14, 1347-1363(1993)        *
          **************** 64 BIT LINUX VERSION ****************

  SINCE 1993, STUDENTS AND POSTDOCS WORKING AT IOWA STATE UNIVERSITY
  AND ALSO IN THEIR VARIOUS JOBS AFTER LEAVING ISU HAVE MADE IMPORTANT
  CONTRIBUTIONS TO THE CODE:
     IVANA ADAMOVIC, CHRISTINE AIKENS, YURI ALEXEEV, POOJA ARORA,
     ANDREY ASADCHEV, ROB BELL, PRADIPTA BANDYOPADHYAY, JONATHAN BENTZ,
     BRETT BODE, KURT BRORSEN, CALEB CARLIN, GALINA CHABAN, WEI CHEN,
     CHEOL HO CHOI, PAUL DAY, ALBERT DEFUSCO, NUWAN DESILVA, TIM DUDLEY,
     DMITRI FEDOROV, ALEX FINDLATER, GRAHAM FLETCHER, MARK FREITAG,
     KURT GLAESEMANN, ANASTASIA GUININA,
     DAN KEMP, GRANT MERRILL, NORIYUKI MINEZAWA, JONATHAN MULLIN,
     TAKESHI NAGATA, SEAN NEDD, HEATHER NETZLOFF, BOSILJKA NJEGIC, RYAN OLSON,
     MIKE PAK, BUU PHAM,
     SPENCER PRUITT, LUKE ROSKOP, JIM SHOEMAKER, LYUDMILA SLIPCHENKO,
     TONY SMITH, SAROM SOK LEANG, JIE SONG, TETSUYA TAKETSUGU, SIMON WEBB,
     PENG XU, SOOHAENG YOO, FEDERICO ZAHARIEV

  ADDITIONAL CODE HAS BEEN PROVIDED BY COLLABORATORS IN OTHER GROUPS:
     IOWA STATE UNIVERSITY:
          JOE IVANIC, AARON WEST, LAIMUTIS BYTAUTAS, KLAUS RUEDENBERG
     UNIVERSITY OF TOKYO: KIMIHIKO HIRAO, TAKAHITO NAKAJIMA,
          TAKAO TSUNEDA, MUNEAKI KAMIYA, SUSUMU YANAGISAWA,
          KIYOSHI YAGI, MAHITO CHIBA, SEIKEN TOKURA, NAOAKI KAWAKAMI
     UNIVERSITY OF AARHUS: FRANK JENSEN
     UNIVERSITY OF IOWA: VISVALDAS KAIRYS, HUI LI
     NATIONAL INST. OF STANDARDS AND TECHNOLOGY: WALT STEVENS, DAVID GARMER
     UNIVERSITY OF PISA: BENEDETTA MENNUCCI, JACOPO TOMASI
     UNIVERSITY OF MEMPHIS: HENRY KURTZ, PRAKASHAN KORAMBATH
     UNIVERSITY OF ALBERTA: TOBY ZENG, MARIUSZ KLOBUKOWSKI
     UNIVERSITY OF NEW ENGLAND: MARK SPACKMAN
     MIE UNIVERSITY: HIROAKI UMEDA
     NAT. INST. OF ADVANCED INDUSTRIAL SCIENCE AND TECHNOLOGY: KAZUO KITAURA
     MICHIGAN STATE UNIVERSITY:
          KAROL KOWALSKI, MARTA WLOCH, JEFFREY GOUR, JESSE LUTZ,
          WEI LI, PIOTR PIECUCH
     UNIVERSITY OF SILESIA: MONIKA MUSIAL, STANISLAW KUCHARSKI
     FACULTES UNIVERSITAIRES NOTRE-DAME DE LA PAIX:
          OLIVIER QUINET, BENOIT CHAMPAGNE
     UNIVERSITY OF CALIFORNIA - SANTA BARBARA: BERNARD KIRTMAN
     INSTITUTE FOR MOLECULAR SCIENCE:
          KAZUYA ISHIMURA, MICHIO KATOUDA, AND SHIGERU NAGASE
     UNIVERSITY OF NOTRE DAME: ANNA POMOGAEVA, DAN CHIPMAN
     KYUSHU UNIVERSITY:
          HARUYUKI NAKANO,
          FENG LONG GU, JACEK KORCHOWIEC, MARCIN MAKOWSKI, AND YURIKO AOKI,
          HIROTOSHI MORI AND EISAKU MIYOSHI
     PENNSYLVANIA STATE UNIVERSITY:
          TZVETELIN IORDANOV, CHET SWALINA, JONATHAN SKONE,
          SHARON HAMMES-SCHIFFER
     WASEDA UNIVERSITY:
          MASATO KOBAYASHI, TOMOKO AKAMA, TSUGUKI TOUMA,
          TAKESHI YOSHIKAWA, YASUHIRO IKABATA, JUNJI SEINO,
          YUYA NAKAJIMA, HIROMI NAKAI
     NANJING UNIVERSITY: SHUHUA LI
     UNIVERSITY OF NEBRASKA:
          PEIFENG SU, DEJUN SI, NANDUN THELLAMUREGE, YALI WANG, HUI LI
     UNIVERSITY OF ZURICH: ROBERTO PEVERATI, KIM BALDRIDGE
     N. COPERNICUS UNIVERSITY AND JACKSON STATE UNIVERSITY:
          MARIA BARYSZ
     UNIVERSITY OF COPENHAGEN: Jimmy Kromann, CASPER STEINMANN
     TOKYO INSTITUTE OF TECHNOLOGY: HIROYA NAKATA
     NAGOYA UNIVERSITY: YOSHIO NISHIMOTO, STEPHAN IRLE
     MOSCOW STATE UNIVERSITY: VLADIMIR MIRONOV


 PARALLEL VERSION RUNNING ON        2 PROCESSORS IN        1 NODES.

 EXECUTION OF GAMESS BEGUN Sun Dec 30 15:06:26 2018

            ECHO OF THE FIRST FEW INPUT CARDS -
 INPUT CARD>! ================================================================              
 INPUT CARD>! This file was generated by Gabedit                                            
 INPUT CARD>! ================================================================              
 INPUT CARD> $SYSTEM MWORDS=20 $END                                                         
 INPUT CARD> $CONTRL RUNTYP=Energy $END                                                     
 INPUT CARD> $CONTRL SCFTYP=RHF $END                                                        
 INPUT CARD> $CONTRL ICHARG=0  MULT=1 $END                                                  
 INPUT CARD> $BASIS GBASIS=N31 NGAUSS=6 $END                                                
 INPUT CARD> $BASIS NDFUNC=1 $END                                                           
 INPUT CARD> $BASIS DIFFSP=.TRUE. $END                                                      
 INPUT CARD> $DATA                                                                          
 INPUT CARD>Molecule specification                                                          
 INPUT CARD>C1                                                                              
 INPUT CARD>C  6.000000 -0.000400 0.000600 0.000200                                         
 INPUT CARD>H  1.000000 -0.075400 1.012600 0.341200                                         
 INPUT CARD>H  1.000000 1.031600 -0.267400 -0.098800                                        
 INPUT CARD>H  1.000000 -0.469400 -0.651400 0.706200                                        
 INPUT CARD>H  1.000000 -0.486400 -0.094400 -0.948800                                       
 INPUT CARD> $END                                                                           
   20000000 WORDS OF MEMORY AVAILABLE

     BASIS OPTIONS
     -------------
     GBASIS=N31          IGAUSS=       6      POLAR=POPN31  
     NDFUNC=       1     NFFUNC=       0     DIFFSP=       T
     NPFUNC=       0      DIFFS=       F     BASNAM=        


     RUN TITLE
     ---------
 Molecule specification                                                          

 THE POINT GROUP OF THE MOLECULE IS C1      
 THE ORDER OF THE PRINCIPAL AXIS IS     0

 ATOM      ATOMIC                      COORDINATES (BOHR)
           CHARGE         X                   Y                   Z
 C           6.0    -0.0007558904        0.0011338356        0.0003779452
 H           1.0    -0.1424853395        1.9135365352        0.6447745070
 H           1.0     1.9494413289       -0.5053127291       -0.1867049276
 H           1.0    -0.8870373786       -1.2309675084        1.3345244925
 H           1.0    -0.9191627204       -0.1783901332       -1.7929720172

          INTERNUCLEAR DISTANCES (ANGS.)
          ------------------------------

                1 C          2 H          3 H          4 H          5 H     

   1 C       0.0000000    1.0705372 *  1.0708170 *  1.0693461 *  1.0704308 *
   2 H       1.0705372 *  0.0000000    1.7485563 *  1.7485300 *  1.7488482 *
   3 H       1.0708170 *  1.7485563 *  0.0000000    1.7459903 *  1.7483572 *
   4 H       1.0693461 *  1.7485300 *  1.7459903 *  0.0000000    1.7462998 *
   5 H       1.0704308 *  1.7488482 *  1.7483572 *  1.7462998 *  0.0000000  

  * ... LESS THAN  3.000


     ATOMIC BASIS SET
     ----------------
 THE CONTRACTED PRIMITIVE FUNCTIONS HAVE BEEN UNNORMALIZED
 THE CONTRACTED BASIS FUNCTIONS ARE NOW NORMALIZED TO UNITY

  SHELL TYPE  PRIMITIVE        EXPONENT          CONTRACTION COEFFICIENT(S)

 C         

      1   S       1          3047.5248800    0.001834737132
      1   S       2           457.3695180    0.014037322813
      1   S       3           103.9486850    0.068842622264
      1   S       4            29.2101553    0.232184443216
      1   S       5             9.2866630    0.467941348435
      1   S       6             3.1639270    0.362311985337

      2   L       7             7.8682723   -0.119332419775    0.068999066591
      2   L       8             1.8812885   -0.160854151696    0.316423960957
      2   L       9             0.5442493    1.143456437840    0.744308290898

      3   L      10             0.1687145    1.000000000000    1.000000000000

      4   L      11             0.0438000    1.000000000000    1.000000000000

      5   D      12             0.8000000    1.000000000000

 H         

      6   S      13            18.7311370    0.033494604338
      6   S      14             2.8253944    0.234726953484
      6   S      15             0.6401217    0.813757326146

      7   S      16             0.1612778    1.000000000000

 H         

      8   S      17            18.7311370    0.033494604338
      8   S      18             2.8253944    0.234726953484
      8   S      19             0.6401217    0.813757326146

      9   S      20             0.1612778    1.000000000000

 H         

     10   S      21            18.7311370    0.033494604338
     10   S      22             2.8253944    0.234726953484
     10   S      23             0.6401217    0.813757326146

     11   S      24             0.1612778    1.000000000000

 H         

     12   S      25            18.7311370    0.033494604338
     12   S      26             2.8253944    0.234726953484
     12   S      27             0.6401217    0.813757326146

     13   S      28             0.1612778    1.000000000000

 TOTAL NUMBER OF BASIS SET SHELLS             =   13
 NUMBER OF CARTESIAN GAUSSIAN BASIS FUNCTIONS =   27
 NUMBER OF ELECTRONS                          =   10
 CHARGE OF MOLECULE                           =    0
 SPIN MULTIPLICITY                            =    1
 NUMBER OF OCCUPIED ORBITALS (ALPHA)          =    5
 NUMBER OF OCCUPIED ORBITALS (BETA )          =    5
 TOTAL NUMBER OF ATOMS                        =    5
 THE NUCLEAR REPULSION ENERGY IS       13.6829080201

     $CONTRL OPTIONS
     ---------------
 SCFTYP=RHF          RUNTYP=ENERGY       EXETYP=RUN     
 MPLEVL=       0     CITYP =NONE         CCTYP =NONE         VBTYP =NONE    
 DFTTYP=NONE         TDDFT =NONE    
 MULT  =       1     ICHARG=       0     NZVAR =       0     COORD =UNIQUE  
 PP    =NONE         RELWFN=NONE         LOCAL =NONE         NUMGRD=       F
 ISPHER=      -1     NOSYM =       0     MAXIT =      30     UNITS =ANGS    
 PLTORB=       F     MOLPLT=       F     AIMPAC=       F     FRIEND=        
 NPRINT=       7     IREST =       0     GEOM  =INPUT   
 NORMF =       0     NORMP =       0     ITOL  =      20     ICUT  =       9
 INTTYP=BEST         GRDTYP=BEST         QMTTOL= 1.0E-06

     $SYSTEM OPTIONS
     ---------------
  REPLICATED MEMORY=    20000000 WORDS (ON EVERY NODE).
 DISTRIBUTED MEMDDI=           0 MILLION WORDS IN AGGREGATE,
 MEMDDI DISTRIBUTED OVER   2 PROCESSORS IS           0 WORDS/PROCESSOR.
 TOTAL MEMORY REQUESTED ON EACH PROCESSOR=    20000000 WORDS.
 TIMLIM=      525600.00 MINUTES, OR     365.0 DAYS.
 PARALL= T  BALTYP=  DLB     KDIAG=    0  COREFL= F
 MXSEQ2=     300 MXSEQ3=     150  mem10=         0

          ----------------
          PROPERTIES INPUT
          ----------------

     MOMENTS            FIELD           POTENTIAL          DENSITY
 IEMOM =       1   IEFLD =       0   IEPOT =       0   IEDEN =       0
 WHERE =COMASS     WHERE =NUCLEI     WHERE =NUCLEI     WHERE =NUCLEI  
 OUTPUT=BOTH       OUTPUT=BOTH       OUTPUT=BOTH       OUTPUT=BOTH    
 IEMINT=       0   IEFINT=       0                     IEDINT=       0
                                                       MORB  =       0
          EXTRAPOLATION IN EFFECT
          SOSCF IN EFFECT
 ORBITAL PRINTING OPTION: NPREO=     1    27     2     1

     -------------------------------
     INTEGRAL TRANSFORMATION OPTIONS
     -------------------------------
     NWORD  =            0
     CUTOFF = 1.0E-09     MPTRAN =       0
     DIRTRF =       F     AOINTS =DUP     

          ----------------------
          INTEGRAL INPUT OPTIONS
          ----------------------
 NOPK  =       1 NORDER=       0 SCHWRZ=       F

     ------------------------------------------
     THE POINT GROUP IS C1 , NAXIS= 0, ORDER= 1
     ------------------------------------------

     DIMENSIONS OF THE SYMMETRY SUBSPACES ARE
 A   =   27

 ..... DONE SETTING UP THE RUN .....
 CPU     0: STEP CPU TIME=     0.04 TOTAL CPU TIME=          0.0 (      0.0 MIN)
 TOTAL WALL CLOCK TIME=          0.7 SECONDS, CPU UTILIZATION IS     6.06%

          ********************
          1 ELECTRON INTEGRALS
          ********************
 ...... END OF ONE-ELECTRON INTEGRALS ......
 CPU     0: STEP CPU TIME=     0.00 TOTAL CPU TIME=          0.0 (      0.0 MIN)
 TOTAL WALL CLOCK TIME=          0.7 SECONDS, CPU UTILIZATION IS     5.97%

          -------------
          GUESS OPTIONS
          -------------
          GUESS =HUCKEL            NORB  =       0          NORDER=       0
          MIX   =       F          PRTMO =       F          PUNMO =       F
          TOLZ  = 1.0E-08          TOLE  = 1.0E-05
          SYMDEN=       F          PURIFY=       F

 INITIAL GUESS ORBITALS GENERATED BY HUCKEL   ROUTINE.
 HUCKEL GUESS REQUIRES      9240 WORDS.

 SYMMETRIES FOR INITIAL GUESS ORBITALS FOLLOW.   BOTH SET(S).
     5 ORBITALS ARE OCCUPIED (    1 CORE ORBITALS).
     2=A        3=A        4=A        5=A        6=A        7=A        8=A   
     9=A       10=A       11=A       12=A       13=A       14=A       15=A   
 ...... END OF INITIAL ORBITAL SELECTION ......
 CPU     0: STEP CPU TIME=     0.00 TOTAL CPU TIME=          0.0 (      0.0 MIN)
 TOTAL WALL CLOCK TIME=          0.8 SECONDS, CPU UTILIZATION IS     5.33%

                    ----------------------
                    AO INTEGRAL TECHNOLOGY
                    ----------------------
     S,P,L SHELL ROTATED AXIS INTEGRALS, REPROGRAMMED BY
        KAZUYA ISHIMURA (IMS) AND JOSE SIERRA (SYNSTAR).
     S,P,D,L SHELL ROTATED AXIS INTEGRALS PROGRAMMED BY
        KAZUYA ISHIMURA (INSTITUTE FOR MOLECULAR SCIENCE).
     S,P,D,F,G SHELL TO TOTAL QUARTET ANGULAR MOMENTUM SUM 5,
        ERIC PROGRAM BY GRAHAM FLETCHER (ELORET AND NASA ADVANCED
        SUPERCOMPUTING DIVISION, AMES RESEARCH CENTER).
     S,P,D,F,G,L SHELL GENERAL RYS QUADRATURE PROGRAMMED BY
        MICHEL DUPUIS (PACIFIC NORTHWEST NATIONAL LABORATORY).

          --------------------
          2 ELECTRON INTEGRALS
          --------------------

 THE -PK- OPTION IS OFF, THE INTEGRALS ARE NOT IN SUPERMATRIX FORM.
 STORING   15000 INTEGRALS/RECORD ON DISK, USING 12 BYTES/INTEGRAL.
 TWO ELECTRON INTEGRAL EVALUATION REQUIRES   90487 WORDS OF MEMORY.
 II,JST,KST,LST =  1  1  1  1 NREC =         1 INTLOC =    1
 II,JST,KST,LST =  2  1  1  1 NREC =         1 INTLOC =    1
 II,JST,KST,LST =  3  1  1  1 NREC =         1 INTLOC =    2
 II,JST,KST,LST =  4  1  1  1 NREC =         1 INTLOC =   56
 II,JST,KST,LST =  5  1  1  1 NREC =         1 INTLOC =  399
 II,JST,KST,LST =  6  1  1  1 NREC =         1 INTLOC = 1101
 II,JST,KST,LST =  7  1  1  1 NREC =         1 INTLOC = 5111
 II,JST,KST,LST =  8  1  1  1 NREC =         1 INTLOC = 7538
 II,JST,KST,LST =  9  1  1  1 NREC =         1 INTLOC = 9465
 II,JST,KST,LST = 10  1  1  1 NREC =         1 INTLOC =11548
 II,JST,KST,LST = 11  1  1  1 NREC =         1 INTLOC =14281
 II,JST,KST,LST = 12  1  1  1 NREC =         2 INTLOC = 2050
 II,JST,KST,LST = 13  1  1  1 NREC =         2 INTLOC = 5870
 TOTAL NUMBER OF NONZERO TWO-ELECTRON INTEGRALS =               56349
          5 INTEGRAL RECORDS WERE STORED ON DISK FILE  8.
  ...... END OF TWO-ELECTRON INTEGRALS .....
 CPU     0: STEP CPU TIME=     0.03 TOTAL CPU TIME=          0.1 (      0.0 MIN)
 TOTAL WALL CLOCK TIME=          0.8 SECONDS, CPU UTILIZATION IS     8.64%

          --------------------------
                 RHF SCF CALCULATION
          --------------------------

     NUCLEAR ENERGY =        13.6829080201
     MAXIT =   30     NPUNCH=    2
     EXTRAP=T  DAMP=F  SHIFT=F  RSTRCT=F  DIIS=F  DEM=F  SOSCF=T
     DENSITY MATRIX CONV=  1.00E-05
     SOSCF WILL OPTIMIZE     110 ORBITAL ROTATIONS, SOGTOL=   0.250
     MEMORY REQUIRED FOR RHF ITERS=     35921 WORDS.

 ITER EX DEM     TOTAL ENERGY        E CHANGE  DENSITY CHANGE     ORB. GRAD
   1  0  0      -40.1056116840   -40.1056116840   0.140360772   0.000000000
          ---------------START SECOND ORDER SCF---------------
   2  1  0      -40.1898729282    -0.0842612442   0.044813098   0.017364074
   3  2  0      -40.1944684640    -0.0045955357   0.016613660   0.011380426
   4  3  0      -40.1951170292    -0.0006485652   0.003168015   0.001414682
   5  4  0      -40.1951312893    -0.0000142601   0.000390314   0.000140649
   6  5  0      -40.1951315356    -0.0000002463   0.000159123   0.000029110
   7  6  0      -40.1951315473    -0.0000000117   0.000017030   0.000005189
   8  7  0      -40.1951315477    -0.0000000004   0.000001871   0.000001341
   9  8  0      -40.1951315477    -0.0000000000   0.000000742   0.000000117

          -----------------
          DENSITY CONVERGED
          -----------------
     TIME TO FORM FOCK OPERATORS=       0.0 SECONDS (       0.0 SEC/ITER)
     TIME TO SOLVE SCF EQUATIONS=       0.0 SECONDS (       0.0 SEC/ITER)

 FINAL RHF ENERGY IS      -40.1951315477 AFTER   9 ITERATIONS

          ------------
          EIGENVECTORS
          ------------

                      1          2          3          4          5
                  -11.2003    -0.9521    -0.5517    -0.5513    -0.5510
                     A          A          A          A          A   
    1  C  1  S    0.995599  -0.195018  -0.000161   0.000024   0.000027
    2  C  1  S    0.028903   0.359121   0.000297  -0.000037  -0.000151
    3  C  1  X   -0.000000  -0.000133   0.087192   0.223991   0.367932
    4  C  1  Y   -0.000003  -0.000448   0.428495  -0.005770  -0.097855
    5  C  1  Z    0.000000   0.000167  -0.045247   0.378124  -0.219603
    6  C  1  S   -0.014618   0.371707   0.000503  -0.000097   0.000272
    7  C  1  X   -0.000001   0.000012   0.044662   0.115038   0.188939
    8  C  1  Y    0.000011  -0.000172   0.219803  -0.002910  -0.050359
    9  C  1  Z   -0.000001   0.000018  -0.023095   0.194060  -0.112705
   10  C  1  S   -0.000696   0.015289   0.000039  -0.000011   0.000077
   11  C  1  X   -0.000001  -0.000005   0.002996   0.007731   0.012741
   12  C  1  Y    0.000002  -0.000014   0.014741  -0.000195  -0.003395
   13  C  1  Z    0.000000   0.000006  -0.001551   0.013061  -0.007611
   14  C  1 XX   -0.002104   0.009961  -0.007878   0.010029   0.030231
   15  C  1 YY   -0.002101   0.010046   0.020123   0.014124  -0.021500
   16  C  1 ZZ   -0.002102   0.009974  -0.012210  -0.024160  -0.008696
   17  C  1 XY    0.000001   0.000029  -0.011690  -0.002839  -0.015728
   18  C  1 XZ   -0.000000   0.000023   0.007761  -0.025280   0.005802
   19  C  1 YZ   -0.000001  -0.000023   0.025902  -0.006647   0.005808
   20  H  2  S   -0.000007   0.136272   0.257587   0.066469  -0.126221
   21  H  2  S    0.003034   0.028187   0.199316   0.051453  -0.097870
   22  H  3  S   -0.000005   0.136298  -0.012415   0.122054   0.267637
   23  H  3  S    0.003041   0.028153  -0.009492   0.094567   0.207543
   24  H  4  S   -0.000007   0.136712  -0.220211   0.103802  -0.165530
   25  H  4  S    0.003048   0.028183  -0.170296   0.080416  -0.128424
   26  H  5  S   -0.000006   0.136372  -0.024779  -0.292368   0.024334
   27  H  5  S    0.003040   0.028170  -0.019056  -0.226514   0.018824

                      6          7          8          9         10
                    0.0934     0.1220     0.1220     0.1220     0.3384
                     A          A          A          A          A   
    1  C  1  S    0.062704   0.000139  -0.000025   0.000002  -0.000062
    2  C  1  S   -0.118874  -0.000092   0.000019  -0.000023   0.000038
    3  C  1  X   -0.000096  -0.020599  -0.051623  -0.092568  -0.200609
    4  C  1  Y    0.000202  -0.105798   0.003292   0.021708   0.090785
    5  C  1  Z    0.000039   0.007498  -0.094796   0.051093   0.121642
    6  C  1  S   -0.184626  -0.001456   0.000256   0.000067   0.002408
    7  C  1  X   -0.000113  -0.030997  -0.077824  -0.139890  -1.258271
    8  C  1  Y   -0.000949  -0.159051   0.004993   0.032754   0.570101
    9  C  1  Z    0.000229   0.011325  -0.142959   0.077230   0.763558
   10  C  1  S    1.737183   0.002973  -0.000579   0.000400  -0.000377
   11  C  1  X   -0.000154   0.234022   0.586141   1.051876  -0.187012
   12  C  1  Y   -0.002357   1.201211  -0.037495  -0.246445   0.085284
   13  C  1  Z    0.000477  -0.085387   1.076959  -0.580876   0.113131
   14  C  1 XX   -0.001256   0.003889  -0.004280  -0.014031   0.019422
   15  C  1 YY   -0.001295  -0.009659  -0.006612   0.009508  -0.015253
   16  C  1 ZZ   -0.001268   0.005854   0.010879   0.004500  -0.004209
   17  C  1 XY   -0.000017   0.005259   0.000937   0.007428  -0.008654
   18  C  1 XZ   -0.000006  -0.003236   0.011850  -0.002388   0.002959
   19  C  1 YZ    0.000016  -0.011824   0.003457  -0.002860   0.001271
   20  H  2  S    0.009618  -0.030095  -0.007362   0.013638  -0.062379
   21  H  2  S   -0.320707  -0.333083  -0.081130   0.149827  -1.197533
   22  H  3  S    0.009568   0.001804  -0.013083  -0.031237   0.102173
   23  H  3  S   -0.321987   0.019849  -0.144419  -0.344292   1.960185
   24  H  4  S    0.009465   0.024572  -0.013218   0.019327  -0.051071
   25  H  4  S   -0.323241   0.271019  -0.145327   0.211866  -0.978353
   26  H  5  S    0.009564   0.003732   0.033652  -0.001644   0.011132
   27  H  5  S   -0.321808   0.041157   0.371156  -0.018272   0.214075

                     11         12         13         14         15
                    0.3385     0.3388     0.4217     0.8497     0.8501
                     A          A          A          A          A   
    1  C  1  S    0.000010  -0.000552  -0.160661  -0.000130   0.000048
    2  C  1  S   -0.000013   0.000622   0.115503  -0.000183  -0.000555
    3  C  1  X    0.139125   0.060749   0.000094   0.331339  -0.307567
    4  C  1  Y    0.029006   0.232555  -0.001029   0.526840  -0.548320
    5  C  1  Z    0.207481  -0.073185   0.000090  -0.627421  -0.622574
    6  C  1  S   -0.000081   0.007477   3.660904   0.003599  -0.000872
    7  C  1  X    0.873884   0.382485  -0.000740  -0.554767   0.515821
    8  C  1  Y    0.182714   1.465274  -0.009400  -0.884177   0.919700
    9  C  1  Z    1.304016  -0.460628   0.001987   1.050898   1.042793
   10  C  1  S   -0.000121   0.004792   1.695305   0.000974  -0.001170
   11  C  1  X    0.130511   0.056767   0.000299   0.212950  -0.197108
   12  C  1  Y    0.027461   0.218883  -0.002348   0.338116  -0.351339
   13  C  1  Z    0.194150  -0.068156   0.000141  -0.403144  -0.399257
   14  C  1 XX   -0.006025   0.003037  -0.005572   0.016369   0.007837
   15  C  1 YY   -0.010175  -0.009276  -0.005566  -0.007555  -0.072666
   16  C  1 ZZ    0.016200   0.006164  -0.005546  -0.008504   0.064588
   17  C  1 XY    0.002977   0.008295  -0.000025  -0.041653   0.016164
   18  C  1 XZ    0.014918  -0.007478  -0.000015   0.051852   0.042670
   19  C  1 YZ    0.001765  -0.016965   0.000048   0.065742  -0.024657
   20  H  2  S   -0.037588  -0.086508  -0.024642   0.137947  -0.349332
   21  H  2  S   -0.723460  -1.668423  -1.735807  -0.046945   0.118863
   22  H  3  S   -0.048302  -0.003637  -0.024720   0.124089  -0.051292
   23  H  3  S   -0.928420  -0.068251  -1.744948  -0.045546   0.018025
   24  H  4  S   -0.026273   0.097011  -0.024787  -0.444021   0.028532
   25  H  4  S   -0.504650   1.871171  -1.754794   0.151771  -0.007329
   26  H  5  S    0.112181  -0.007920  -0.024707   0.181122   0.371864
   27  H  5  S    2.156839  -0.150877  -1.743853  -0.064532  -0.125988

                     16         17         18         19         20
                    0.8502     1.2210     1.2215     1.2222     1.3186
                     A          A          A          A          A   
    1  C  1  S   -0.000011   0.000255  -0.000009   0.000594  -0.128939
    2  C  1  S    0.001124   0.004128   0.000590  -0.000811  -1.804039
    3  C  1  X   -0.760433   0.681988  -0.372882  -0.181546   0.000049
    4  C  1  Y    0.452001  -0.242609  -0.076876  -0.756958  -0.002270
    5  C  1  Z   -0.022343  -0.336445  -0.701766   0.180134   0.000311
    6  C  1  S   -0.000549  -0.012377  -0.001597   0.000020   5.312839
    7  C  1  X    1.273078  -0.870816   0.476180   0.231798   0.000335
    8  C  1  Y   -0.757668   0.309865   0.098209   0.966685  -0.003411
    9  C  1  Z    0.038114   0.429572   0.896110  -0.229961   0.000282
   10  C  1  S    0.001560  -0.000926  -0.000421   0.004285   0.027186
   11  C  1  X   -0.487593  -0.215177   0.118259   0.056966  -0.000467
   12  C  1  Y    0.289594   0.077190   0.024632   0.239391   0.000385
   13  C  1  Z   -0.014174   0.105620   0.221421  -0.056168   0.000284
   14  C  1 XX   -0.085186  -0.226587   0.051424  -0.043290  -0.122061
   15  C  1 YY    0.047184   0.158711   0.126004   0.121267  -0.120699
   16  C  1 ZZ    0.038257   0.068497  -0.177372  -0.077622  -0.120601
   17  C  1 XY    0.027482   0.106796  -0.020523  -0.092044  -0.000221
   18  C  1 XZ    0.025509  -0.022524  -0.178476   0.075769  -0.000524
   19  C  1 YZ    0.018296  -0.021982  -0.032156   0.193535   0.000973
   20  H  2  S    0.238325   0.449677   0.314807   0.756280  -0.431269
   21  H  2  S   -0.081708  -0.852518  -0.599429  -1.437120  -0.958155
   22  H  3  S   -0.423868  -0.873155   0.321007   0.006786  -0.437431
   23  H  3  S    0.144758   1.667684  -0.610998  -0.009673  -0.953092
   24  H  4  S    0.022711   0.436304   0.294393  -0.763834  -0.436024
   25  H  4  S   -0.010144  -0.828150  -0.561301   1.459976  -0.958177
   26  H  5  S    0.163764  -0.010547  -0.930987   0.016008  -0.435094
   27  H  5  S   -0.056311   0.024518   1.774204  -0.027245  -0.955793

                     21         22         23         24         25
                    1.4093     1.9361     1.9362     2.6462     2.6465
                     A          A          A          A          A   
    1  C  1  S    0.050000   0.000003  -0.000273  -0.000027  -0.000047
    2  C  1  S   -1.365117   0.000028  -0.002262   0.000604   0.000392
    3  C  1  X    0.001233   0.000082  -0.000009  -0.050858  -0.151556
    4  C  1  Y    0.004376   0.000013   0.000066   0.161083  -0.012929
    5  C  1  Z   -0.001578   0.000038   0.000056   0.060194  -0.094727
    6  C  1  S    3.441805  -0.000101   0.008163  -0.001769   0.000153
    7  C  1  X   -0.001436  -0.000053  -0.000011  -0.131350  -0.390714
    8  C  1  Y   -0.006511   0.000029  -0.000038   0.415464  -0.033207
    9  C  1  Z    0.002055  -0.000038   0.000046   0.155234  -0.244059
   10  C  1  S    0.903155  -0.000004   0.000337  -0.000766  -0.000152
   11  C  1  X    0.000159  -0.000015   0.000005   0.051366   0.152282
   12  C  1  Y   -0.001761  -0.000010  -0.000017  -0.161500   0.012837
   13  C  1  Z    0.000153  -0.000004  -0.000028  -0.060592   0.095018
   14  C  1 XX   -0.058165   0.340242   0.208635  -0.737595  -0.647867
   15  C  1 YY   -0.058269  -0.164498   0.371342   0.976006  -0.221081
   16  C  1 ZZ   -0.058001  -0.175741  -0.580179  -0.238744   0.868835
   17  C  1 XY    0.000727   0.802707   0.225130   0.000103   0.361076
   18  C  1 XZ   -0.000229  -0.075440   0.649824  -0.024741   0.586399
   19  C  1 YZ   -0.001238   0.483906  -0.426252   0.505145  -0.043500
   20  H  2  S    0.607369  -0.000045  -0.001381  -0.920864   0.165725
   21  H  2  S   -1.356393   0.000042  -0.001386   0.266482  -0.047619
   22  H  3  S    0.610500   0.000005  -0.001218   0.499713   0.706171
   23  H  3  S   -1.362410   0.000087  -0.001513  -0.144071  -0.204506
   24  H  4  S    0.614499   0.000077  -0.001371   0.186547  -0.062733
   25  H  4  S   -1.371590  -0.000006  -0.001476  -0.052228   0.018185
   26  H  5  S    0.610250   0.000026  -0.001146   0.233268  -0.810353
   27  H  5  S   -1.362226  -0.000050  -0.001541  -0.066648   0.234328

                     26         27
                    2.6483     4.6533
                     A          A   
    1  C  1  S    0.000122  -0.492690
    2  C  1  S   -0.000769   2.918117
    3  C  1  X    0.081023   0.000136
    4  C  1  Y    0.079026   0.000471
    5  C  1  Z   -0.140675  -0.000173
    6  C  1  S   -0.001693   2.812979
    7  C  1  X    0.206935   0.000245
    8  C  1  Y    0.201713  -0.002132
    9  C  1  Z   -0.359152   0.000148
   10  C  1  S   -0.000071   0.229403
   11  C  1  X   -0.080958   0.000081
   12  C  1  Y   -0.078496  -0.000476
   13  C  1  Z    0.140386   0.000014
   14  C  1 XX    0.349996  -1.895328
   15  C  1 YY   -0.277337  -1.895887
   16  C  1 ZZ   -0.072546  -1.895797
   17  C  1 XY   -0.513795  -0.000193
   18  C  1 XZ    0.628482   0.000140
   19  C  1 YZ    0.705820   0.000100
   20  H  2  S   -0.124031   0.161202
   21  H  2  S    0.035692  -0.675788
   22  H  3  S   -0.374627   0.160689
   23  H  3  S    0.109701  -0.676892
   24  H  4  S    0.924975   0.161834
   25  H  4  S   -0.267648  -0.678785
   26  H  5  S   -0.423628   0.161088
   27  H  5  S    0.123528  -0.676900
 ...... END OF RHF CALCULATION ......
 CPU     0: STEP CPU TIME=     0.01 TOTAL CPU TIME=          0.1 (      0.0 MIN)
 TOTAL WALL CLOCK TIME=          0.8 SECONDS, CPU UTILIZATION IS     9.52%

     ----------------------------------------------------------------
     PROPERTY VALUES FOR THE RHF   SELF-CONSISTENT FIELD WAVEFUNCTION
     ----------------------------------------------------------------

          -----------------
          ENERGY COMPONENTS
          -----------------

         WAVEFUNCTION NORMALIZATION =       1.0000000000

                ONE ELECTRON ENERGY =     -80.1434659845
                TWO ELECTRON ENERGY =      26.2654264167
           NUCLEAR REPULSION ENERGY =      13.6829080201
                                      ------------------
                       TOTAL ENERGY =     -40.1951315477

 ELECTRON-ELECTRON POTENTIAL ENERGY =      26.2654264167
  NUCLEUS-ELECTRON POTENTIAL ENERGY =    -120.4008953797
   NUCLEUS-NUCLEUS POTENTIAL ENERGY =      13.6829080201
                                      ------------------
             TOTAL POTENTIAL ENERGY =     -80.4525609429
               TOTAL KINETIC ENERGY =      40.2574293952
                 VIRIAL RATIO (V/T) =       1.9984525130

          ---------------------------------------
          MULLIKEN AND LOWDIN POPULATION ANALYSES
          ---------------------------------------

     ATOMIC MULLIKEN POPULATION IN EACH MOLECULAR ORBITAL

                      1          2          3          4          5

                  2.000000   2.000000   2.000000   2.000000   2.000000

    1             1.997532   1.385320   1.121406   1.121378   1.121444
    2             0.000615   0.153408   0.504546   0.033575   0.121094
    3             0.000617   0.153448   0.001164   0.113308   0.544838
    4             0.000619   0.154233   0.368231   0.081835   0.208123
    5             0.000617   0.153591   0.004652   0.649903   0.004501

               ----- POPULATIONS IN EACH AO -----
                             MULLIKEN      LOWDIN
              1  C  1  S      1.99645     1.98229
              2  C  1  S      0.62893     0.35045
              3  C  1  X      0.70428     0.63696
              4  C  1  Y      0.70463     0.63738
              5  C  1  Z      0.70460     0.63748
              6  C  1  S      0.69896     0.33242
              7  C  1  X      0.38988     0.48255
              8  C  1  Y      0.38964     0.48258
              9  C  1  Z      0.38971     0.48283
             10  C  1  S      0.01950     0.07258
             11  C  1  X      0.01315     0.06053
             12  C  1  Y      0.01308     0.06042
             13  C  1  Z      0.01314     0.06049
             14  C  1 XX      0.02081     0.15629
             15  C  1 YY      0.02090     0.15647
             16  C  1 ZZ      0.01888     0.15389
             17  C  1 XY      0.00430     0.00637
             18  C  1 XZ      0.00804     0.01195
             19  C  1 YZ      0.00821     0.01221
             20  H  2  S      0.52997     0.48498
             21  H  2  S      0.28327     0.32165
             22  H  3  S      0.52990     0.48532
             23  H  3  S      0.28348     0.32182
             24  H  4  S      0.53043     0.48312
             25  H  4  S      0.28261     0.32108
             26  H  5  S      0.53003     0.48432
             27  H  5  S      0.28324     0.32158

          ----- MULLIKEN ATOMIC OVERLAP POPULATIONS -----
          (OFF-DIAGONAL ELEMENTS NEED TO BE MULTIPLIED BY 2)

             1           2           3           4           5

    1    5.1968890
    2    0.3875391   0.5028930
    3    0.3875484  -0.0257895   0.5034038
    4    0.3875570  -0.0256744  -0.0259978   0.5030919
    5    0.3875473  -0.0257297  -0.0257890  -0.0259356   0.5031705

          TOTAL MULLIKEN AND LOWDIN ATOMIC POPULATIONS
       ATOM         MULL.POP.    CHARGE          LOW.POP.     CHARGE
    1 C             6.747081   -0.747081         6.776145   -0.776145
    2 H             0.813239    0.186761         0.806627    0.193373
    3 H             0.813376    0.186624         0.807135    0.192865
    4 H             0.813041    0.186959         0.804195    0.195805
    5 H             0.813263    0.186737         0.805898    0.194102

          -------------------------------
          BOND ORDER AND VALENCE ANALYSIS     BOND ORDER THRESHOLD=0.050
          -------------------------------

                   BOND                       BOND                       BOND
  ATOM PAIR DIST  ORDER      ATOM PAIR DIST  ORDER      ATOM PAIR DIST  ORDER
    1   2  1.071  0.953        1   3  1.071  0.953        1   4  1.069  0.952
    1   5  1.070  0.953

                       TOTAL       BONDED        FREE
      ATOM            VALENCE     VALENCE     VALENCE
    1 C                 3.810       3.810      -0.000
    2 H                 0.923       0.923      -0.000
    3 H                 0.923       0.923      -0.000
    4 H                 0.923       0.923      -0.000
    5 H                 0.923       0.923       0.000

          ---------------------
          ELECTROSTATIC MOMENTS
          ---------------------

 POINT   1           X           Y           Z (BOHR)    CHARGE
                -0.000518    0.000777    0.000259       -0.00 (A.U.)
         DX          DY          DZ         /D/  (DEBYE)
    -0.000316   -0.001760    0.000506    0.001859
 ...... END OF PROPERTY EVALUATION ......
 CPU     0: STEP CPU TIME=     0.01 TOTAL CPU TIME=          0.1 (      0.0 MIN)
 TOTAL WALL CLOCK TIME=          0.9 SECONDS, CPU UTILIZATION IS    10.34%
               580000  WORDS OF DYNAMIC MEMORY USED
 EXECUTION OF GAMESS TERMINATED NORMALLY Sun Dec 30 15:06:27 2018
 DDI: 263640 bytes (0.3 MB / 0 MWords) used by master data server.

 ----------------------------------------
 CPU timing information for all processes
 ========================================
 0: 0.52 + 0.48 = 0.100
 1: 0.44 + 0.24 = 0.68
 ----------------------------------------
 ddikick.x: exited gracefully.
----- accounting info -----
Files used on the master node marvin were:
-rw-rw-r-- 1 igor igor     604 Dec 30 15:06 /home/igor/programs/scr/amonia.F05
-rw-rw-r-- 1 igor igor  360032 Dec 30 15:06 /home/igor/programs/scr/amonia.F08
-rw-rw-r-- 1 igor igor  540048 Dec 30 15:06 /home/igor/programs/scr/amonia.F08.001
-rw-rw-r-- 1 igor igor 1505120 Dec 30 15:06 /home/igor/programs/scr/amonia.F10
Sun Dec 30 15:06:30 -03 2018
0.0u 0.0s 0:04.37 0.6% 0+0k 296+16io 4pf+0w
