----- GAMESS execution script 'rungms' -----
This job is running on host multivac2
under operating system Linux at Mon Dec 24 10:39:21 -03 2018
Available scratch disk space (Kbyte units) at beginning of the job is
Filesystem      1K-blocks      Used  Available Use% Mounted on
/dev/sda4      1650447924 158168596 1408418388  11% /
GAMESS temporary binary files will be written to /home/igorchem/programs/src
GAMESS supplementary output files will be written to /home/igorchem/programs/usrsrc
Copying input file cys.inp to your run's scratch directory...

 Distributed Data Interface kickoff program.
 Initiating 1 compute processes on 1 nodes to run the following command:
 /home/igorchem/programs/gamess/gamess.00.x cys 

          ******************************************************
          *         GAMESS VERSION = 11 NOV 2017 (R3)         *
          *             FROM IOWA STATE UNIVERSITY             *
          * M.W.SCHMIDT, K.K.BALDRIDGE, J.A.BOATZ, S.T.ELBERT, *
          *   M.S.GORDON, J.H.JENSEN, S.KOSEKI, N.MATSUNAGA,   *
          *          K.A.NGUYEN, S.J.SU, T.L.WINDUS,           *
          *       TOGETHER WITH M.DUPUIS, J.A.MONTGOMERY       *
          *         J.COMPUT.CHEM.  14, 1347-1363(1993)        *
          **************** 64 BIT LINUX VERSION ****************

  SINCE 1993, STUDENTS AND POSTDOCS WORKING AT IOWA STATE UNIVERSITY
  AND ALSO IN THEIR VARIOUS JOBS AFTER LEAVING ISU HAVE MADE IMPORTANT
  CONTRIBUTIONS TO THE CODE:
     IVANA ADAMOVIC, CHRISTINE AIKENS, YURI ALEXEEV, POOJA ARORA,
     ANDREY ASADCHEV, ROB BELL, PRADIPTA BANDYOPADHYAY, JONATHAN BENTZ,
     BRETT BODE, KURT BRORSEN, CALEB CARLIN, GALINA CHABAN, WEI CHEN,
     CHEOL HO CHOI, PAUL DAY, ALBERT DEFUSCO, NUWAN DESILVA, TIM DUDLEY,
     DMITRI FEDOROV, ALEX FINDLATER, GRAHAM FLETCHER, MARK FREITAG,
     KURT GLAESEMANN, ANASTASIA GUININA,
     DAN KEMP, GRANT MERRILL, NORIYUKI MINEZAWA, JONATHAN MULLIN,
     TAKESHI NAGATA, SEAN NEDD, HEATHER NETZLOFF, BOSILJKA NJEGIC, RYAN OLSON,
     MIKE PAK, BUU PHAM,
     SPENCER PRUITT, LUKE ROSKOP, JIM SHOEMAKER, LYUDMILA SLIPCHENKO,
     TONY SMITH, SAROM SOK LEANG, JIE SONG, TETSUYA TAKETSUGU, SIMON WEBB,
     PENG XU, SOOHAENG YOO, FEDERICO ZAHARIEV

  ADDITIONAL CODE HAS BEEN PROVIDED BY COLLABORATORS IN OTHER GROUPS:
     IOWA STATE UNIVERSITY:
          JOE IVANIC, AARON WEST, LAIMUTIS BYTAUTAS, KLAUS RUEDENBERG
     UNIVERSITY OF TOKYO: KIMIHIKO HIRAO, TAKAHITO NAKAJIMA,
          TAKAO TSUNEDA, MUNEAKI KAMIYA, SUSUMU YANAGISAWA,
          KIYOSHI YAGI, MAHITO CHIBA, SEIKEN TOKURA, NAOAKI KAWAKAMI
     UNIVERSITY OF AARHUS: FRANK JENSEN
     UNIVERSITY OF IOWA: VISVALDAS KAIRYS, HUI LI
     NATIONAL INST. OF STANDARDS AND TECHNOLOGY: WALT STEVENS, DAVID GARMER
     UNIVERSITY OF PISA: BENEDETTA MENNUCCI, JACOPO TOMASI
     UNIVERSITY OF MEMPHIS: HENRY KURTZ, PRAKASHAN KORAMBATH
     UNIVERSITY OF ALBERTA: TOBY ZENG, MARIUSZ KLOBUKOWSKI
     UNIVERSITY OF NEW ENGLAND: MARK SPACKMAN
     MIE UNIVERSITY: HIROAKI UMEDA
     NAT. INST. OF ADVANCED INDUSTRIAL SCIENCE AND TECHNOLOGY: KAZUO KITAURA
     MICHIGAN STATE UNIVERSITY:
          KAROL KOWALSKI, MARTA WLOCH, JEFFREY GOUR, JESSE LUTZ,
          WEI LI, PIOTR PIECUCH
     UNIVERSITY OF SILESIA: MONIKA MUSIAL, STANISLAW KUCHARSKI
     FACULTES UNIVERSITAIRES NOTRE-DAME DE LA PAIX:
          OLIVIER QUINET, BENOIT CHAMPAGNE
     UNIVERSITY OF CALIFORNIA - SANTA BARBARA: BERNARD KIRTMAN
     INSTITUTE FOR MOLECULAR SCIENCE:
          KAZUYA ISHIMURA, MICHIO KATOUDA, AND SHIGERU NAGASE
     UNIVERSITY OF NOTRE DAME: ANNA POMOGAEVA, DAN CHIPMAN
     KYUSHU UNIVERSITY:
          HARUYUKI NAKANO,
          FENG LONG GU, JACEK KORCHOWIEC, MARCIN MAKOWSKI, AND YURIKO AOKI,
          HIROTOSHI MORI AND EISAKU MIYOSHI
     PENNSYLVANIA STATE UNIVERSITY:
          TZVETELIN IORDANOV, CHET SWALINA, JONATHAN SKONE,
          SHARON HAMMES-SCHIFFER
     WASEDA UNIVERSITY:
          MASATO KOBAYASHI, TOMOKO AKAMA, TSUGUKI TOUMA,
          TAKESHI YOSHIKAWA, YASUHIRO IKABATA, JUNJI SEINO,
          YUYA NAKAJIMA, HIROMI NAKAI
     NANJING UNIVERSITY: SHUHUA LI
     UNIVERSITY OF NEBRASKA:
          PEIFENG SU, DEJUN SI, NANDUN THELLAMUREGE, YALI WANG, HUI LI
     UNIVERSITY OF ZURICH: ROBERTO PEVERATI, KIM BALDRIDGE
     N. COPERNICUS UNIVERSITY AND JACKSON STATE UNIVERSITY:
          MARIA BARYSZ
     UNIVERSITY OF COPENHAGEN: Jimmy Kromann, CASPER STEINMANN
     TOKYO INSTITUTE OF TECHNOLOGY: HIROYA NAKATA
     NAGOYA UNIVERSITY: YOSHIO NISHIMOTO, STEPHAN IRLE
     MOSCOW STATE UNIVERSITY: VLADIMIR MIRONOV

 EXECUTION OF GAMESS BEGUN Mon Dec 24 10:39:21 2018

            ECHO OF THE FIRST FEW INPUT CARDS -
 INPUT CARD>! ================================================================              
 INPUT CARD>! This file was generated by Gabedit                                            
 INPUT CARD>! ================================================================              
 INPUT CARD> $SYSTEM MWORDS=20 $END                                                         
 INPUT CARD> $CONTRL RUNTYP=Energy $END                                                     
 INPUT CARD> $CONTRL SCFTYP=RHF $END                                                        
 INPUT CARD> $CONTRL ICHARG=0  MULT=1 $END                                                  
 INPUT CARD> $scf  NPUNCH=0 $end                                                            
 INPUT CARD> $contrl nprint=8 $end                                                          
 INPUT CARD> $BASIS GBASIS=N31 NGAUSS=6 $END                                                
 INPUT CARD> $BASIS NDFUNC=1 $END                                                           
 INPUT CARD> $BASIS DIFFSP=.TRUE. $END                                                      
 INPUT CARD> $DATA                                                                          
 INPUT CARD>Molecule specification                                                          
 INPUT CARD>C1                                                                              
 INPUT CARD>N  7.000000 2.161418 1.505696 0.163284                                          
 INPUT CARD>H  1.000000 1.573615 2.309867 0.360016                                          
 INPUT CARD>C  6.000000 1.511497 0.200031 0.166451                                          
 INPUT CARD>H  1.000000 1.846868 -0.355977 -0.709049                                        
 INPUT CARD>C  6.000000 -0.019459 0.317153 0.084023                                         
 INPUT CARD>O  8.000000 -0.596969 1.321195 0.506852                                         
 INPUT CARD>C  6.000000 1.952316 -0.557194 1.422114                                         
 INPUT CARD>H  1.000000 3.042602 -0.584814 1.464376                                         
 INPUT CARD>H  1.000000 1.574097 -0.046165 2.309905                                         
 INPUT CARD>S  16.000000 1.303730 -2.250946 1.355180                                        
 INPUT CARD>H  1.000000 1.673259 -2.945992 2.438213                                         
 INPUT CARD>H  1.000000 -0.604199 -0.524149 -0.287859                                       
 INPUT CARD>H  1.000000 3.001614 1.616341 -0.386108                                         
 INPUT CARD>H  1.000000 1.766354 -2.871328 0.266188                                         
 INPUT CARD>H  1.000000 -0.030616 -2.223250 1.295165                                        
 INPUT CARD> $END                                                                           
   20000000 WORDS OF MEMORY AVAILABLE

     BASIS OPTIONS
     -------------
     GBASIS=N31          IGAUSS=       6      POLAR=POPN31  
     NDFUNC=       1     NFFUNC=       0     DIFFSP=       T
     NPFUNC=       0      DIFFS=       F     BASNAM=        


     RUN TITLE
     ---------
 Molecule specification                                                          

 THE POINT GROUP OF THE MOLECULE IS C1      
 THE ORDER OF THE PRINCIPAL AXIS IS     0

 ATOM      ATOMIC                      COORDINATES (BOHR)
           CHARGE         X                   Y                   Z
 N           7.0     4.0844877649        2.8453528608        0.3085620182
 H           1.0     2.9737011602        4.3650156981        0.6803315912
 C           6.0     2.8563151613        0.3780037790        0.3145467804
 H           1.0     3.4900744555       -0.6726989879       -1.3399083219
 C           6.0    -0.0367721780        0.5993322662        0.1587804467
 O           8.0    -1.1281078332        2.4966965263        0.9578113963
 C           6.0     3.6893422814       -1.0529439820        2.6874057833
 H           1.0     5.7496840697       -1.1051382138        2.7672693830
 H           1.0     2.9746120081       -0.0872392002        4.3650875077
 S          16.0     2.4636924620       -4.2536711532        2.5609188640
 H           1.0     3.1620010165       -5.5671176420        4.6075544697
 H           1.0    -1.1417705521       -0.9904979867       -0.5439746331
 H           1.0     5.6722279809        3.0544415927       -0.7296383217
 H           1.0     3.3379250573       -5.4260231409        0.5030223812
 H           1.0    -0.0578558508       -4.2013333022        2.4475069589

          INTERNUCLEAR DISTANCES (ANGS.)
          ------------------------------

                1 N          2 H          3 C          4 H          5 C     

   1 N       0.0000000    1.0153358 *  1.4584815 *  2.0798396 *  2.4849832 *
   2 H       1.0153358 *  0.0000000    2.1196070 *  2.8851848 *  2.5661189 *
   3 C       1.4584815 *  2.1196070 *  0.0000000    1.0900086 *  1.5376405 *
   4 H       2.0798396 *  2.8851848 *  1.0900086 *  0.0000000    2.1366431 *
   5 C       2.4849832 *  2.5661189 *  1.5376405 *  2.1366431 *  0.0000000  
   6 O       2.7858174 *  2.3896586 *  2.4121589 *  3.2036948    1.2330460 *
   7 C       2.4256735 *  3.0808287    1.5311436 *  2.1432366 *  2.5382803 *
   8 H       2.6152548 *  3.4288062    2.1551969 *  2.4911689 *  3.4778063  
   9 H       2.7131532 *  3.0582600    2.1584546 *  3.0470430    2.7615161 *
  10 S       4.0334357    4.6759175    2.7319466 *  2.8542859 *  3.1562322  
  11 H       5.0230595    5.6526883    3.8838808    4.0796539    4.3652743  
  12 H       3.4601211    3.6323907    2.2818860 *  2.4926717 *  1.0899569 *
  13 H       1.0099521 *  1.7540982 *  2.1287800 *  2.3081957 *  3.3220167  
  14 H       4.3960214    5.1856276    3.0835281    2.6989925 *  3.6590604  
  15 H       4.4711526    4.8986948    3.0861624    3.3209228    2.8143626 *

                6 O          7 C          8 H          9 H         10 S     

   1 N       2.7858174 *  2.4256735 *  2.6152548 *  2.7131532 *  4.0334357  
   2 H       2.3896586 *  3.0808287    3.4288062    3.0582600    4.6759175  
   3 C       2.4121589 *  1.5311436 *  2.1551969 *  2.1584546 *  2.7319466 *
   4 H       3.2036948    2.1432366 *  2.4911689 *  3.0470430    2.8542859 *
   5 C       1.2330460 *  2.5382803 *  3.4778063    2.7615161 *  3.1562322  
   6 O       0.0000000    3.2961953    4.2185542    3.1359530    4.1343087  
   7 C       3.2961953    0.0000000    1.0914543 *  1.0919584 *  1.8149214 *
   8 H       4.2185542    1.0914543 *  0.0000000    1.7780801 *  2.4107251 *
   9 H       3.1359530    1.0919584 *  1.7780801 *  0.0000000    2.4177794 *
  10 S       4.1343087    1.8149214 *  2.4107251 *  2.4177794 *  0.0000000  
  11 H       5.2050913    2.6108784 *  2.8980373 *  2.9043575 *  1.3388805 *
  12 H       2.0092069 *  3.0758525    4.0463768    3.4237144    3.0531292  
  13 H       3.7194473    3.0157831    2.8759441 *  3.4742218    4.5684574  
  14 H       4.8187617    2.5934462 *  2.8796892 *  3.4921752    1.3359635 *
  15 H       3.6749535    2.5930441 *  3.4867999    2.8886849 *  1.3359821 *

               11 H         12 H         13 H         14 H         15 H     

   1 N       5.0230595    3.4601211    1.0099521 *  4.3960214    4.4711526  
   2 H       5.6526883    3.6323907    1.7540982 *  5.1856276    4.8986948  
   3 C       3.8838808    2.2818860 *  2.1287800 *  3.0835281    3.0861624  
   4 H       4.0796539    2.4926717 *  2.3081957 *  2.6989925 *  3.3209228  
   5 C       4.3652743    1.0899569 *  3.3220167    3.6590604    2.8143626 *
   6 O       5.2050913    2.0092069 *  3.7194473    4.8187617    3.6749535  
   7 C       2.6108784 *  3.0758525    3.0157831    2.5934462 *  2.5930441 *
   8 H       2.8980373 *  4.0463768    2.8759441 *  2.8796892 *  3.4867999  
   9 H       2.9043575 *  3.4237144    3.4742218    3.4921752    2.8886849 *
  10 S       1.3388805 *  3.0531292    4.5684574    1.3359635 *  1.3359821 *
  11 H       0.0000000    4.2992566    5.5277661    2.1753009 *  2.1753401 *
  12 H       4.2992566    0.0000000    4.1944294    3.3816769    2.3920507 *
  13 H       5.5277661    4.1944294    0.0000000    4.7000564    5.1733506  
  14 H       2.1753009 *  3.3816769    4.7000564    0.0000000    2.1697696 *
  15 H       2.1753401 *  2.3920507 *  5.1733506    2.1697696 *  0.0000000  

  * ... LESS THAN  3.000


     ATOMIC BASIS SET
     ----------------
 THE CONTRACTED PRIMITIVE FUNCTIONS HAVE BEEN UNNORMALIZED
 THE CONTRACTED BASIS FUNCTIONS ARE NOW NORMALIZED TO UNITY

  SHELL TYPE  PRIMITIVE        EXPONENT          CONTRACTION COEFFICIENT(S)

 N         

      1   S       1          4173.5114600    0.001834772160
      1   S       2           627.4579110    0.013994627002
      1   S       3           142.9020930    0.068586551812
      1   S       4            40.2343293    0.232240873040
      1   S       5            12.8202129    0.469069948082
      1   S       6             4.3904370    0.360455199063

      2   L       7            11.6263619   -0.114961181702    0.067579743878
      2   L       8             2.7162798   -0.169117478561    0.323907295893
      2   L       9             0.7722184    1.145851947027    0.740895139755

      3   L      10             0.2120315    1.000000000000    1.000000000000

      4   L      11             0.0639000    1.000000000000    1.000000000000

      5   D      12             0.8000000    1.000000000000

 H         

      6   S      13            18.7311370    0.033494604338
      6   S      14             2.8253944    0.234726953484
      6   S      15             0.6401217    0.813757326146

      7   S      16             0.1612778    1.000000000000

 C         

      8   S      17          3047.5248800    0.001834737132
      8   S      18           457.3695180    0.014037322813
      8   S      19           103.9486850    0.068842622264
      8   S      20            29.2101553    0.232184443216
      8   S      21             9.2866630    0.467941348435
      8   S      22             3.1639270    0.362311985337

      9   L      23             7.8682723   -0.119332419775    0.068999066591
      9   L      24             1.8812885   -0.160854151696    0.316423960957
      9   L      25             0.5442493    1.143456437840    0.744308290898

     10   L      26             0.1687145    1.000000000000    1.000000000000

     11   L      27             0.0438000    1.000000000000    1.000000000000

     12   D      28             0.8000000    1.000000000000

 H         

     13   S      29            18.7311370    0.033494604338
     13   S      30             2.8253944    0.234726953484
     13   S      31             0.6401217    0.813757326146

     14   S      32             0.1612778    1.000000000000

 C         

     15   S      33          3047.5248800    0.001834737132
     15   S      34           457.3695180    0.014037322813
     15   S      35           103.9486850    0.068842622264
     15   S      36            29.2101553    0.232184443216
     15   S      37             9.2866630    0.467941348435
     15   S      38             3.1639270    0.362311985337

     16   L      39             7.8682723   -0.119332419775    0.068999066591
     16   L      40             1.8812885   -0.160854151696    0.316423960957
     16   L      41             0.5442493    1.143456437840    0.744308290898

     17   L      42             0.1687145    1.000000000000    1.000000000000

     18   L      43             0.0438000    1.000000000000    1.000000000000

     19   D      44             0.8000000    1.000000000000

 O         

     20   S      45          5484.6716600    0.001831074430
     20   S      46           825.2349460    0.013950172200
     20   S      47           188.0469580    0.068445078098
     20   S      48            52.9645000    0.232714335992
     20   S      49            16.8975704    0.470192897984
     20   S      50             5.7996353    0.358520852987

     21   L      51            15.5396162   -0.110777549525    0.070874268231
     21   L      52             3.5999336   -0.148026262701    0.339752839147
     21   L      53             1.0137618    1.130767015354    0.727158577316

     22   L      54             0.2700058    1.000000000000    1.000000000000

     23   L      55             0.0845000    1.000000000000    1.000000000000

     24   D      56             0.8000000    1.000000000000

 C         

     25   S      57          3047.5248800    0.001834737132
     25   S      58           457.3695180    0.014037322813
     25   S      59           103.9486850    0.068842622264
     25   S      60            29.2101553    0.232184443216
     25   S      61             9.2866630    0.467941348435
     25   S      62             3.1639270    0.362311985337

     26   L      63             7.8682723   -0.119332419775    0.068999066591
     26   L      64             1.8812885   -0.160854151696    0.316423960957
     26   L      65             0.5442493    1.143456437840    0.744308290898

     27   L      66             0.1687145    1.000000000000    1.000000000000

     28   L      67             0.0438000    1.000000000000    1.000000000000

     29   D      68             0.8000000    1.000000000000

 H         

     30   S      69            18.7311370    0.033494604338
     30   S      70             2.8253944    0.234726953484
     30   S      71             0.6401217    0.813757326146

     31   S      72             0.1612778    1.000000000000

 H         

     32   S      73            18.7311370    0.033494604338
     32   S      74             2.8253944    0.234726953484
     32   S      75             0.6401217    0.813757326146

     33   S      76             0.1612778    1.000000000000

 S         

     34   S      77         21917.1000000    0.001869240849
     34   S      78          3301.4900000    0.014230306464
     34   S      79           754.1460000    0.069696231659
     34   S      80           212.7110000    0.238487108332
     34   S      81            67.9896000    0.483307219541
     34   S      82            23.0515000    0.338074153569

     35   L      83           423.7350000   -0.002376770499    0.004061009982
     35   L      84           100.7100000   -0.031693006651    0.030681299864
     35   L      85            32.1599000   -0.113317023779    0.130451999421
     35   L      86            11.8079000    0.056090011770    0.327204998547
     35   L      87             4.6311000    0.592255124284    0.452850997989
     35   L      88             1.8702500    0.455006095483    0.256041998863

     36   L      89             2.6158400   -0.250373114159   -0.014510489547
     36   L      90             0.9221670    0.066956763101    0.310262776489
     36   L      91             0.3412870    1.054506269068    0.754482456476

     37   L      92             0.1171670    1.000000000000    1.000000000000

     38   L      93             0.0405000    1.000000000000    1.000000000000

     39   D      94             0.6500000    1.000000000000

 H         

     40   S      95            18.7311370    0.033494604338
     40   S      96             2.8253944    0.234726953484
     40   S      97             0.6401217    0.813757326146

     41   S      98             0.1612778    1.000000000000

 H         

     42   S      99            18.7311370    0.033494604338
     42   S     100             2.8253944    0.234726953484
     42   S     101             0.6401217    0.813757326146

     43   S     102             0.1612778    1.000000000000

 H         

     44   S     103            18.7311370    0.033494604338
     44   S     104             2.8253944    0.234726953484
     44   S     105             0.6401217    0.813757326146

     45   S     106             0.1612778    1.000000000000

 H         

     46   S     107            18.7311370    0.033494604338
     46   S     108             2.8253944    0.234726953484
     46   S     109             0.6401217    0.813757326146

     47   S     110             0.1612778    1.000000000000

 H         

     48   S     111            18.7311370    0.033494604338
     48   S     112             2.8253944    0.234726953484
     48   S     113             0.6401217    0.813757326146

     49   S     114             0.1612778    1.000000000000

 TOTAL NUMBER OF BASIS SET SHELLS             =   49
 NUMBER OF CARTESIAN GAUSSIAN BASIS FUNCTIONS =  136
 NUMBER OF ELECTRONS                          =   58
 CHARGE OF MOLECULE                           =    0
 SPIN MULTIPLICITY                            =    1
 NUMBER OF OCCUPIED ORBITALS (ALPHA)          =   29
 NUMBER OF OCCUPIED ORBITALS (BETA )          =   29
 TOTAL NUMBER OF ATOMS                        =   15
 THE NUCLEAR REPULSION ENERGY IS      315.9916766022

     $CONTRL OPTIONS
     ---------------
 SCFTYP=RHF          RUNTYP=ENERGY       EXETYP=RUN     
 MPLEVL=       0     CITYP =NONE         CCTYP =NONE         VBTYP =NONE    
 DFTTYP=NONE         TDDFT =NONE    
 MULT  =       1     ICHARG=       0     NZVAR =       0     COORD =UNIQUE  
 PP    =NONE         RELWFN=NONE         LOCAL =NONE         NUMGRD=       F
 ISPHER=      -1     NOSYM =       0     MAXIT =      30     UNITS =ANGS    
 PLTORB=       F     MOLPLT=       F     AIMPAC=       F     FRIEND=        
 NPRINT=       8     IREST =       0     GEOM  =INPUT   
 NORMF =       0     NORMP =       0     ITOL  =      20     ICUT  =       9
 INTTYP=BEST         GRDTYP=BEST         QMTTOL= 1.0E-06

     $SYSTEM OPTIONS
     ---------------
  REPLICATED MEMORY=    20000000 WORDS (ON EVERY NODE).
 DISTRIBUTED MEMDDI=           0 MILLION WORDS IN AGGREGATE,
 MEMDDI DISTRIBUTED OVER   1 PROCESSORS IS           0 WORDS/PROCESSOR.
 TOTAL MEMORY REQUESTED ON EACH PROCESSOR=    20000000 WORDS.
 TIMLIM=      525600.00 MINUTES, OR     365.0 DAYS.
 PARALL= F  BALTYP=  DLB     KDIAG=    0  COREFL= F
 MXSEQ2=     300 MXSEQ3=     150  mem10=         0

          ----------------
          PROPERTIES INPUT
          ----------------

     MOMENTS            FIELD           POTENTIAL          DENSITY
 IEMOM =       1   IEFLD =       0   IEPOT =       0   IEDEN =       0
 WHERE =COMASS     WHERE =NUCLEI     WHERE =NUCLEI     WHERE =NUCLEI  
 OUTPUT=BOTH       OUTPUT=BOTH       OUTPUT=BOTH       OUTPUT=BOTH    
 IEMINT=       0   IEFINT=       0                     IEDINT=       0
                                                       MORB  =       0
          EXTRAPOLATION IN EFFECT
          SOSCF IN EFFECT
 ORBITAL PRINTING OPTION: NPREO=     1   136     2     1

     -------------------------------
     INTEGRAL TRANSFORMATION OPTIONS
     -------------------------------
     NWORD  =            0
     CUTOFF = 1.0E-09     MPTRAN =       0
     DIRTRF =       F     AOINTS =DUP     

          ----------------------
          INTEGRAL INPUT OPTIONS
          ----------------------
 NOPK  =       1 NORDER=       0 SCHWRZ=       T

     ------------------------------------------
     THE POINT GROUP IS C1 , NAXIS= 0, ORDER= 1
     ------------------------------------------

     DIMENSIONS OF THE SYMMETRY SUBSPACES ARE
 A   =  136

 ..... DONE SETTING UP THE RUN .....
 STEP CPU TIME =     0.00 TOTAL CPU TIME =          0.0 (      0.0 MIN)
 TOTAL WALL CLOCK TIME=          0.0 SECONDS, CPU UTILIZATION IS     0.00%

          ********************
          1 ELECTRON INTEGRALS
          ********************
 ...... END OF ONE-ELECTRON INTEGRALS ......
 STEP CPU TIME =     0.02 TOTAL CPU TIME =          0.0 (      0.0 MIN)
 TOTAL WALL CLOCK TIME=          0.0 SECONDS, CPU UTILIZATION IS   100.00%

          -------------
          GUESS OPTIONS
          -------------
          GUESS =HUCKEL            NORB  =       0          NORDER=       0
          MIX   =       F          PRTMO =       F          PUNMO =       F
          TOLZ  = 1.0E-08          TOLE  = 1.0E-05
          SYMDEN=       F          PURIFY=       F

 INITIAL GUESS ORBITALS GENERATED BY HUCKEL   ROUTINE.
 HUCKEL GUESS REQUIRES    152782 WORDS.

 SYMMETRIES FOR INITIAL GUESS ORBITALS FOLLOW.   BOTH SET(S).
    29 ORBITALS ARE OCCUPIED (   10 CORE ORBITALS).
    11=A       12=A       13=A       14=A       15=A       16=A       17=A   
    18=A       19=A       20=A       21=A       22=A       23=A       24=A   
    25=A       26=A       27=A       28=A       29=A       30=A       31=A   
    32=A       33=A       34=A       35=A       36=A       37=A       38=A   
    39=A   
 ...... END OF INITIAL ORBITAL SELECTION ......
 STEP CPU TIME =     0.02 TOTAL CPU TIME =          0.0 (      0.0 MIN)
 TOTAL WALL CLOCK TIME=          0.1 SECONDS, CPU UTILIZATION IS    80.00%

                    ----------------------
                    AO INTEGRAL TECHNOLOGY
                    ----------------------
     S,P,L SHELL ROTATED AXIS INTEGRALS, REPROGRAMMED BY
        KAZUYA ISHIMURA (IMS) AND JOSE SIERRA (SYNSTAR).
     S,P,D,L SHELL ROTATED AXIS INTEGRALS PROGRAMMED BY
        KAZUYA ISHIMURA (INSTITUTE FOR MOLECULAR SCIENCE).
     S,P,D,F,G SHELL TO TOTAL QUARTET ANGULAR MOMENTUM SUM 5,
        ERIC PROGRAM BY GRAHAM FLETCHER (ELORET AND NASA ADVANCED
        SUPERCOMPUTING DIVISION, AMES RESEARCH CENTER).
     S,P,D,F,G,L SHELL GENERAL RYS QUADRATURE PROGRAMMED BY
        MICHEL DUPUIS (PACIFIC NORTHWEST NATIONAL LABORATORY).

          --------------------
          2 ELECTRON INTEGRALS
          --------------------

 THE -PK- OPTION IS OFF, THE INTEGRALS ARE NOT IN SUPERMATRIX FORM.
 STORING   15000 INTEGRALS/RECORD ON DISK, USING 12 BYTES/INTEGRAL.
 TWO ELECTRON INTEGRAL EVALUATION REQUIRES   91621 WORDS OF MEMORY.
 SCHWARZ INEQUALITY OVERHEAD:      9242 INTEGRALS, T=        0.01
 II,JST,KST,LST =  1  1  1  1 NREC =         1 INTLOC =    1
 II,JST,KST,LST =  2  1  1  1 NREC =         1 INTLOC =    2
 II,JST,KST,LST =  3  1  1  1 NREC =         1 INTLOC =   34
 II,JST,KST,LST =  4  1  1  1 NREC =         1 INTLOC =  214
 II,JST,KST,LST =  5  1  1  1 NREC =         1 INTLOC =  776
 II,JST,KST,LST =  6  1  1  1 NREC =         1 INTLOC = 2864
 II,JST,KST,LST =  7  1  1  1 NREC =         1 INTLOC = 6874
 II,JST,KST,LST =  8  1  1  1 NREC =         1 INTLOC =11515
 II,JST,KST,LST =  9  1  1  1 NREC =         2 INTLOC = 1760
 II,JST,KST,LST = 10  1  1  1 NREC =         4 INTLOC = 1278
 II,JST,KST,LST = 11  1  1  1 NREC =         7 INTLOC = 2068
 II,JST,KST,LST = 12  1  1  1 NREC =        11 INTLOC = 8326
 II,JST,KST,LST = 13  1  1  1 NREC =        21 INTLOC = 5623
 II,JST,KST,LST = 14  1  1  1 NREC =        23 INTLOC =10087
 II,JST,KST,LST = 15  1  1  1 NREC =        26 INTLOC = 2149
 II,JST,KST,LST = 16  1  1  1 NREC =        28 INTLOC = 7869
 II,JST,KST,LST = 17  1  1  1 NREC =        41 INTLOC =  370
 II,JST,KST,LST = 18  1  1  1 NREC =        57 INTLOC = 2018
 II,JST,KST,LST = 19  1  1  1 NREC =        77 INTLOC = 5238
 II,JST,KST,LST = 20  1  1  1 NREC =       116 INTLOC = 4587
 II,JST,KST,LST = 21  1  1  1 NREC =       122 INTLOC = 4439
 II,JST,KST,LST = 22  1  1  1 NREC =       156 INTLOC = 2349
 II,JST,KST,LST = 23  1  1  1 NREC =       198 INTLOC = 6885
 II,JST,KST,LST = 24  1  1  1 NREC =       248 INTLOC = 9883
 II,JST,KST,LST = 25  1  1  1 NREC =       338 INTLOC = 1873
 II,JST,KST,LST = 26  1  1  1 NREC =       351 INTLOC = 9160
 II,JST,KST,LST = 27  1  1  1 NREC =       425 INTLOC =13866
 II,JST,KST,LST = 28  1  1  1 NREC =       514 INTLOC =  191
 II,JST,KST,LST = 29  1  1  1 NREC =       614 INTLOC =12207
 II,JST,KST,LST = 30  1  1  1 NREC =       784 INTLOC =11995
 II,JST,KST,LST = 31  1  1  1 NREC =       812 INTLOC = 8089
 II,JST,KST,LST = 32  1  1  1 NREC =       846 INTLOC = 1742
 II,JST,KST,LST = 33  1  1  1 NREC =       879 INTLOC = 6201
 II,JST,KST,LST = 34  1  1  1 NREC =       915 INTLOC = 4458
 II,JST,KST,LST = 35  1  1  1 NREC =       932 INTLOC =11267
 II,JST,KST,LST = 36  1  1  1 NREC =      1028 INTLOC = 8486
 II,JST,KST,LST = 37  1  1  1 NREC =      1185 INTLOC = 7700
 II,JST,KST,LST = 38  1  1  1 NREC =      1374 INTLOC =13852
 II,JST,KST,LST = 39  1  1  1 NREC =      1586 INTLOC = 8213
 II,JST,KST,LST = 40  1  1  1 NREC =      1874 INTLOC = 1401
 II,JST,KST,LST = 41  1  1  1 NREC =      1912 INTLOC =12641
 II,JST,KST,LST = 42  1  1  1 NREC =      1974 INTLOC = 9988
 II,JST,KST,LST = 43  1  1  1 NREC =      2034 INTLOC = 7651
 II,JST,KST,LST = 44  1  1  1 NREC =      2103 INTLOC = 5207
 II,JST,KST,LST = 45  1  1  1 NREC =      2157 INTLOC =  921
 II,JST,KST,LST = 46  1  1  1 NREC =      2227 INTLOC = 4829
 II,JST,KST,LST = 47  1  1  1 NREC =      2279 INTLOC =13085
 II,JST,KST,LST = 48  1  1  1 NREC =      2352 INTLOC = 7185
 II,JST,KST,LST = 49  1  1  1 NREC =      2413 INTLOC = 5834
 SCHWARZ INEQUALITY TEST SKIPPED      122702 INTEGRAL BLOCKS.
 TOTAL NUMBER OF NONZERO TWO-ELECTRON INTEGRALS =            37348686
       2490 INTEGRAL RECORDS WERE STORED ON DISK FILE  8.
  ...... END OF TWO-ELECTRON INTEGRALS .....
 STEP CPU TIME =     1.22 TOTAL CPU TIME =          1.3 (      0.0 MIN)
 TOTAL WALL CLOCK TIME=          1.3 SECONDS, CPU UTILIZATION IS    98.44%

          --------------------------
                 RHF SCF CALCULATION
          --------------------------

     NUCLEAR ENERGY =       315.9916766022
     MAXIT =   30     NPUNCH=    0
     EXTRAP=T  DAMP=F  SHIFT=F  RSTRCT=F  DIIS=F  DEM=F  SOSCF=T
     DENSITY MATRIX CONV=  1.00E-05
     SOSCF WILL OPTIMIZE    3103 ORBITAL ROTATIONS, SOGTOL=   0.250
     MEMORY REQUIRED FOR RHF ITERS=    173788 WORDS.

 ITER EX DEM     TOTAL ENERGY        E CHANGE  DENSITY CHANGE     ORB. GRAD
   1  0  0     -643.1607032388  -643.1607032388   8.281470807   0.000000000
   2  1  0     -628.9226189630    14.2380842758  74.729097538   0.371480089
   3  2  0     -537.7494523051    91.1731666580  57.217217952   2.023851527
   4  3  0     -513.7920523807    23.9573999244  11.419853814   1.015146695
   5  4  0     -339.4420667951   174.3499855856  89.958121031   1.502886486
   6  5  0     -428.5988961198   -89.1568293248  89.957782014   1.204364907
   7  6  0     -346.4267469726    82.1721491472  90.100288660   1.046876537
   8  0  0     -427.6343221923   -81.2075752197 277.605004447   1.357402458
   9  1  0     -612.1542415386  -184.5199193463 301.259206136   0.511863981
  10  2  0     -476.1030056832   136.0512358554  20.808768335   1.791679650
  11  3  0     -573.9598302421   -97.8568245589  27.458314696   0.722584391
  12  0  0     -453.7661947372   120.1936355049 109.979812988   1.216578052
  13  1  0     -604.7281652193  -150.9619704820 136.367732356   0.482791159
  14  2  0     -481.8712368439   122.8569283754   9.377962294   1.928814737
  15  3  0     -558.8429745335   -76.9717376896  17.607231783   0.830609959
  16  4  0     -346.9474621597   211.8955123738  84.547978866   2.139012540
  17  5  0     -436.8675975056   -89.9201353459  84.576659574   1.075562641
  18  6  0     -342.4541934719    94.4134040337  90.085635458   1.118502282
  19  0  0     -427.9224729910   -85.4682795191 283.224084782   1.381673184
  20  1  0     -604.4182526653  -176.4957796743 298.930836033   0.646767188
  21  2  0     -470.8019451391   133.6163075262  28.072551100   1.657171279
  22  3  0     -573.7278690464  -102.9259239073  25.733822710   0.771898357
  23  0  0     -453.7695782368   119.9582908096 110.136875740   1.170067164
  24  1  0     -605.1002331782  -151.3306549414 134.344093013   0.523213738
  25  2  0     -481.2532823790   123.8469507992   9.375308506   2.049118749
  26  3  0     -557.1840133148   -75.9307309358  17.529545501   3.667579660
  27  4  0     -344.7696434397   212.4143698752  84.540095204   2.222325433
  28  5  0     -436.9281997564   -92.1585563167  84.568721479   0.989322807
  29  6  0     -342.3431571025    94.5850426538  90.084941607   1.123576837
  30  0  0     -427.9295055253   -85.5863484228 283.040956480   1.382314447

 SCF IS UNCONVERGED, TOO MANY ITERATIONS
     TIME TO FORM FOCK OPERATORS=       7.9 SECONDS (       0.3 SEC/ITER)
     TIME TO SOLVE SCF EQUATIONS=       0.3 SECONDS (       0.0 SEC/ITER)

 FINAL RHF ENERGY IS        0.0000000000 AFTER  30 ITERATIONS

          ------------
          EIGENVECTORS
          ------------

                      1          2          3          4          5
                  -98.6881   -18.6838   -15.7227   -12.0838   -11.5369
                     A          A          A          A          A   
    1  N  1  S    0.000004   0.000024   0.992643  -0.000046  -0.000183
    2  N  1  S    0.000015   0.000062   0.034054  -0.000815  -0.000863
    3  N  1  X   -0.000003  -0.000033   0.005125  -0.000197  -0.000029
    4  N  1  Y    0.000000  -0.000025  -0.001196   0.000196   0.000241
    5  N  1  Z   -0.000004   0.000015   0.000135  -0.000021  -0.000249
    6  N  1  S   -0.000125  -0.000615   0.004698   0.002603   0.004120
    7  N  1  X    0.000033   0.000032  -0.004123   0.001641  -0.000377
    8  N  1  Y    0.000040   0.000266   0.001074  -0.004140  -0.002940
    9  N  1  Z    0.000018  -0.000011   0.000233  -0.000165   0.001739
   10  N  1  S    0.000732   0.000273  -0.000760   0.000683   0.013592
   11  N  1  X   -0.000244  -0.000294   0.000033  -0.000246  -0.002231
   12  N  1  Y   -0.000015  -0.000143   0.000507   0.000088  -0.001676
   13  N  1  Z    0.000035  -0.000033   0.001434  -0.000469  -0.000750
   14  N  1 XX    0.000007   0.000116  -0.007346   0.000075  -0.000729
   15  N  1 YY    0.000004   0.000009  -0.007444   0.000620   0.000093
   16  N  1 ZZ    0.000008   0.000069  -0.007521  -0.000227  -0.000303
   17  N  1 XY   -0.000003  -0.000011  -0.000054   0.000789   0.000122
   18  N  1 XZ   -0.000001   0.000002  -0.000182  -0.000081  -0.000018
   19  N  1 YZ    0.000001  -0.000008  -0.000044   0.000052  -0.000587
   20  H  2  S    0.000015   0.000101   0.000189   0.000334   0.000190
   21  H  2  S   -0.000102  -0.000127  -0.002752   0.001938  -0.001882
   22  C  3  S    0.000001   0.000019   0.000011   0.995671   0.000200
   23  C  3  S    0.000014   0.000077  -0.000062   0.032584   0.002517
   24  C  3  X   -0.000005  -0.000088  -0.000084   0.011389  -0.000270
   25  C  3  Y   -0.000003   0.000042   0.000089  -0.012028   0.000315
   26  C  3  Z   -0.000008   0.000007   0.000030   0.004526  -0.000968
   27  C  3  S    0.000004   0.000121  -0.001175  -0.025373  -0.004319
   28  C  3  X    0.000033  -0.000099   0.001375  -0.009919   0.000162
   29  C  3  Y    0.000146   0.000715  -0.000698   0.010696  -0.001779
   30  C  3  Z    0.000011  -0.000174  -0.000417  -0.001820   0.000450
   31  C  3  S   -0.002715   0.001203  -0.004750  -0.025674  -0.014788
   32  C  3  X    0.001134   0.002383   0.001677   0.007973   0.000685
   33  C  3  Y   -0.000708  -0.001344   0.000563   0.001241  -0.006093
   34  C  3  Z   -0.000150   0.002454  -0.001234   0.001902   0.000549
   35  C  3 XX    0.000002   0.000045   0.000066  -0.003562  -0.000148
   36  C  3 YY   -0.000004   0.000048   0.000200  -0.002677  -0.000579
   37  C  3 ZZ   -0.000005   0.000036   0.000043  -0.001371  -0.001770
   38  C  3 XY    0.000005  -0.000013   0.000138  -0.000347   0.000331
   39  C  3 XZ   -0.000001  -0.000001  -0.000018   0.000211  -0.000923
   40  C  3 YZ    0.000006  -0.000013  -0.000016  -0.000206   0.001343
   41  H  4  S    0.000004   0.000025  -0.000086  -0.000768   0.000055
   42  H  4  S    0.000114  -0.000179  -0.000080   0.010530   0.000779
   43  C  5  S    0.000002   0.000022   0.000026  -0.000051  -0.000129
   44  C  5  S    0.000010  -0.000124   0.000103  -0.001716  -0.000570
   45  C  5  X    0.000003  -0.000138   0.000142   0.000347  -0.000144
   46  C  5  Y   -0.000004   0.000387   0.000109   0.000235   0.000140
   47  C  5  Z    0.000002   0.000175   0.000026   0.000084  -0.000050
   48  C  5  S    0.000017  -0.001960   0.000799   0.004683   0.004707
   49  C  5  X    0.000002  -0.000029   0.000152   0.002480   0.001427
   50  C  5  Y   -0.000025  -0.001565  -0.000838   0.000173   0.001140
   51  C  5  Z   -0.000019  -0.000598  -0.000110   0.001533   0.001703
   52  C  5  S    0.003106   0.009351   0.004950   0.014154   0.005421
   53  C  5  X    0.000649   0.001912   0.001190   0.002649   0.000824
   54  C  5  Y    0.000032   0.001215  -0.000099   0.000212   0.001031
   55  C  5  Z    0.000215   0.000442   0.000464  -0.002401  -0.000610
   56  C  5 XX    0.000003   0.000095   0.000052   0.002049  -0.000071
   57  C  5 YY   -0.000001   0.000414  -0.000003   0.000068  -0.000186
   58  C  5 ZZ    0.000007   0.000074   0.000099  -0.000188  -0.000085
   59  C  5 XY   -0.000004  -0.000310  -0.000046  -0.000319  -0.000133
   60  C  5 XZ   -0.000003  -0.000134   0.000042   0.000154   0.000124
   61  C  5 YZ    0.000006   0.000172  -0.000003   0.000265   0.000101
   62  O  6  S   -0.000003   0.992533  -0.000000   0.000155   0.000101
   63  O  6  S   -0.000011   0.025034  -0.000043   0.000771   0.000490
   64  O  6  X    0.000001  -0.001759   0.000044   0.000247   0.000105
   65  O  6  Y    0.000003   0.000711   0.000015  -0.000033  -0.000033
   66  O  6  Z   -0.000002   0.001590  -0.000015   0.000054   0.000005
   67  O  6  S    0.000057   0.016074   0.000439  -0.003367  -0.002949
   68  O  6  X   -0.000009   0.001358   0.000057  -0.001921  -0.001107
   69  O  6  Y   -0.000009  -0.000698  -0.000048   0.001237   0.000813
   70  O  6  Z    0.000006  -0.000867   0.000018  -0.000006  -0.000002
   71  O  6  S   -0.000113  -0.006759  -0.000317  -0.000485  -0.000740
   72  O  6  X    0.000074  -0.001100   0.000050  -0.000370  -0.000101
   73  O  6  Y   -0.000026   0.000238   0.000161  -0.000070  -0.000193
   74  O  6  Z    0.000023   0.000374  -0.000123   0.000657   0.000448
   75  O  6 XX   -0.000010  -0.008107   0.000020   0.000159   0.000186
   76  O  6 YY   -0.000010  -0.008294  -0.000018   0.000264   0.000243
   77  O  6 ZZ   -0.000009  -0.008101   0.000043   0.000700   0.000343
   78  O  6 XY   -0.000003   0.000070   0.000014   0.000230   0.000105
   79  O  6 XZ    0.000003   0.000048   0.000011   0.000093   0.000049
   80  O  6 YZ   -0.000002  -0.000115  -0.000026  -0.000150   0.000033
   81  C  7  S    0.000005  -0.000040  -0.000011  -0.000049   0.993281
   82  C  7  S    0.000024  -0.000151  -0.000037   0.001661   0.044345
   83  C  7  X   -0.000012   0.000050   0.000009   0.000021   0.000650
   84  C  7  Y   -0.000039  -0.000013  -0.000046  -0.000346   0.014337
   85  C  7  Z    0.000006   0.000020   0.000003   0.001121  -0.004881
   86  C  7  S   -0.000219   0.000807   0.000229   0.006997  -0.012793
   87  C  7  X    0.000007  -0.000374  -0.000507   0.002682  -0.001155
   88  C  7  Y    0.000134  -0.000002   0.000293  -0.000153  -0.012432
   89  C  7  Z   -0.000108  -0.000266   0.000088  -0.004013   0.001832
   90  C  7  S   -0.001716  -0.006145   0.002872   0.010378  -0.012108
   91  C  7  X    0.000251   0.000583  -0.000568  -0.003337   0.001764
   92  C  7  Y    0.000448  -0.001706  -0.001417  -0.000328   0.007418
   93  C  7  Z    0.000462   0.001636   0.000122  -0.002654  -0.001306
   94  C  7 XX    0.000005  -0.000070   0.000016  -0.000008  -0.006523
   95  C  7 YY    0.000011  -0.000072  -0.000020  -0.000910  -0.006344
   96  C  7 ZZ    0.000012  -0.000055  -0.000047  -0.002265  -0.005579
   97  C  7 XY    0.000006  -0.000023  -0.000037   0.000678  -0.000220
   98  C  7 XZ    0.000009   0.000019   0.000027  -0.001015   0.000268
   99  C  7 YZ   -0.000002   0.000010  -0.000010   0.001610  -0.000544
  100  H  8  S   -0.000013   0.000002  -0.000055  -0.000616  -0.000230
  101  H  8  S    0.000136   0.000078   0.000492  -0.001241   0.003649
  102  H  9  S   -0.000015  -0.000078  -0.000026   0.000123  -0.000651
  103  H  9  S    0.000185   0.000031  -0.000179   0.001440   0.006112
  104  S 10  S    0.997855  -0.000000   0.000001   0.000018   0.000095
  105  S 10  S    0.008093   0.000008   0.000009  -0.000276  -0.000413
  106  S 10  X   -0.000008   0.000003  -0.000007   0.000023  -0.000058
  107  S 10  Y    0.000062   0.000012  -0.000008   0.000006  -0.000188
  108  S 10  Z   -0.000048   0.000004   0.000003  -0.000037  -0.000027
  109  S 10  S   -0.008728   0.000022   0.000028  -0.000314  -0.000149
  110  S 10  X   -0.000001  -0.000023   0.000026  -0.000078  -0.000050
  111  S 10  Y   -0.000063  -0.000064   0.000040  -0.000251  -0.000049
  112  S 10  Z    0.000033  -0.000021  -0.000011   0.000267   0.000080
  113  S 10  S    0.002812  -0.000321  -0.000092   0.001955  -0.003085
  114  S 10  X    0.000033   0.000099   0.000020  -0.001844  -0.001345
  115  S 10  Y    0.000269  -0.000147  -0.000128   0.001759  -0.000927
  116  S 10  Z   -0.000066   0.000167   0.000005  -0.002292  -0.001003
  117  S 10  S    0.000238  -0.001412  -0.002504  -0.001325   0.011061
  118  S 10  X    0.000100  -0.000248  -0.000326  -0.000107   0.001801
  119  S 10  Y    0.000034  -0.000446  -0.000702  -0.000607   0.003124
  120  S 10  Z    0.000036  -0.000155  -0.000094  -0.000141   0.001322
  121  S 10 XX    0.002687   0.000011   0.000034  -0.000508  -0.000149
  122  S 10 YY    0.002701  -0.000039  -0.000002  -0.000095   0.000471
  123  S 10 ZZ    0.002684   0.000019   0.000023  -0.000269  -0.000258
  124  S 10 XY    0.000008   0.000016   0.000023  -0.000216   0.000130
  125  S 10 XZ    0.000001   0.000004   0.000003  -0.000029  -0.000070
  126  S 10 YZ    0.000001  -0.000002  -0.000008  -0.000172  -0.000031
  127  H 11  S    0.000046  -0.000014  -0.000009  -0.000081   0.000206
  128  H 11  S   -0.000208   0.000044   0.000025   0.001377   0.000904
  129  H 12  S    0.000013   0.000032  -0.000068  -0.000203  -0.000001
  130  H 12  S   -0.000056  -0.000440  -0.000518   0.000941   0.000405
  131  H 13  S   -0.000002   0.000003  -0.000175  -0.000520   0.000107
  132  H 13  S    0.000017  -0.000042   0.001948  -0.000252  -0.001468
  133  H 14  S    0.000042  -0.000020  -0.000018  -0.000076   0.000112
  134  H 14  S   -0.000220   0.000203   0.000113  -0.000771   0.000296
  135  H 15  S    0.000042  -0.000001   0.000024   0.000040   0.000091
  136  H 15  S   -0.000241   0.000102  -0.000015  -0.001828   0.000140

                      6          7          8          9         10
                  -11.3504    -9.9614    -9.4596    -9.4559    -9.4549
                     A          A          A          A          A   
    1  N  1  S   -0.000006  -0.000053   0.000225  -0.000172  -0.000014
    2  N  1  S   -0.000052  -0.000198   0.000843  -0.000720  -0.000045
    3  N  1  X   -0.000043   0.000120  -0.000297  -0.000196  -0.000207
    4  N  1  Y    0.000083   0.000056   0.000571   0.000094   0.000314
    5  N  1  Z   -0.000056   0.000033  -0.000136  -0.000662  -0.000022
    6  N  1  S   -0.000210  -0.000475  -0.013867   0.003786  -0.000376
    7  N  1  X    0.000318   0.000874   0.005634   0.000602   0.001171
    8  N  1  Y   -0.000741   0.001363  -0.001263  -0.002111  -0.002031
    9  N  1  Z    0.000293   0.000463   0.000682   0.003016   0.000225
   10  N  1  S    0.014073  -0.020839   0.045083  -0.011140   0.025734
   11  N  1  X   -0.004520   0.007530  -0.011237   0.004419  -0.002069
   12  N  1  Y   -0.000055   0.001958  -0.010529  -0.000477  -0.002092
   13  N  1  Z    0.000309  -0.002245   0.010169  -0.019253  -0.003315
   14  N  1 XX   -0.000004   0.000023   0.000066  -0.000443  -0.000092
   15  N  1 YY    0.000170  -0.000093   0.000889   0.000045   0.000011
   16  N  1 ZZ   -0.000132  -0.000386   0.000350  -0.000564  -0.000066
   17  N  1 XY    0.000106  -0.000207  -0.000235   0.000163   0.000131
   18  N  1 XZ   -0.000065  -0.000039  -0.000209  -0.000022  -0.000120
   19  N  1 YZ    0.000006  -0.000072  -0.000498  -0.000222  -0.000168
   20  H  2  S    0.000310  -0.000363   0.000897  -0.000345   0.000092
   21  H  2  S   -0.001724   0.001243   0.001666   0.001904   0.001787
   22  C  3  S   -0.000056  -0.000219   0.001045   0.000182   0.000157
   23  C  3  S   -0.000017   0.000185   0.005490   0.000532   0.000956
   24  C  3  X   -0.000052   0.000646  -0.000365  -0.000169   0.000273
   25  C  3  Y    0.000595   0.000105  -0.001381   0.000329  -0.000396
   26  C  3  Z   -0.000444   0.000318  -0.000852  -0.000308   0.000226
   27  C  3  S    0.001227   0.012719  -0.029887  -0.009411  -0.007654
   28  C  3  X   -0.002700  -0.005053  -0.006539  -0.001269   0.001922
   29  C  3  Y    0.000994   0.001751   0.036814  -0.000414   0.001603
   30  C  3  Z   -0.000943  -0.005188  -0.004221   0.000581  -0.001955
   31  C  3  S   -0.042661   0.101289  -0.369676   0.241817  -0.070976
   32  C  3  X    0.019630  -0.019671   0.027121  -0.025079   0.042283
   33  C  3  Y   -0.014646  -0.000857   0.033024  -0.047731  -0.037004
   34  C  3  Z   -0.002067   0.013472  -0.077725   0.067748   0.014464
   35  C  3 XX   -0.000191  -0.002709   0.002432   0.000240   0.000013
   36  C  3 YY   -0.000887  -0.000113  -0.000409   0.000319   0.000163
   37  C  3 ZZ   -0.000524  -0.000419   0.000655   0.000450   0.000110
   38  C  3 XY   -0.000086   0.000056  -0.000094  -0.000453   0.000079
   39  C  3 XZ   -0.000052  -0.000269   0.000313   0.000069   0.000045
   40  C  3 YZ    0.000235   0.000186   0.001471  -0.000172  -0.000153
   41  H  4  S    0.000113  -0.000362   0.002385   0.000866   0.000962
   42  H  4  S   -0.000666  -0.006461   0.022861  -0.005054  -0.002812
   43  C  5  S    0.000131   1.003747   0.000229   0.000138  -0.000212
   44  C  5  S    0.000830  -0.015739   0.002288   0.000836  -0.001740
   45  C  5  X    0.000165   0.003531   0.001710   0.000309  -0.000327
   46  C  5  Y   -0.000092  -0.008905  -0.001765  -0.000076   0.000937
   47  C  5  Z   -0.000041  -0.000353   0.001549  -0.000376  -0.000585
   48  C  5  S   -0.004529  -0.058240  -0.014749  -0.015660   0.010888
   49  C  5  X   -0.002485  -0.004342  -0.001464   0.002938   0.003672
   50  C  5  Y   -0.000634   0.002532  -0.012209  -0.006836  -0.005680
   51  C  5  Z   -0.001379  -0.001977  -0.013306  -0.001222   0.004031
   52  C  5  S    0.056385  -0.048671   0.070865  -0.053311   0.105296
   53  C  5  X    0.011142  -0.006729   0.013899  -0.004737   0.035427
   54  C  5  Y   -0.000961   0.002983  -0.004815   0.017034   0.009837
   55  C  5  Z    0.004602   0.000326  -0.003185  -0.002988  -0.002872
   56  C  5 XX    0.000039   0.022353   0.000522   0.000490  -0.000404
   57  C  5 YY   -0.000217   0.021644   0.000464   0.000206  -0.000624
   58  C  5 ZZ    0.000212   0.022301   0.001410   0.000349  -0.000720
   59  C  5 XY    0.000216   0.000389  -0.000183   0.000502  -0.000124
   60  C  5 XZ   -0.000081   0.000391  -0.000142   0.000118   0.000263
   61  C  5 YZ    0.000102  -0.000357  -0.000053  -0.000353   0.000005
   62  O  6  S   -0.000150   0.000030  -0.000458  -0.000536   0.000135
   63  O  6  S   -0.000662  -0.000753  -0.002260  -0.002437   0.000559
   64  O  6  X   -0.000029  -0.000362  -0.000463  -0.000204  -0.000049
   65  O  6  Y    0.000081   0.000450   0.000832   0.000036  -0.000384
   66  O  6  Z   -0.000096   0.000083  -0.000152   0.000112   0.000182
   67  O  6  S    0.003643   0.004539   0.014671   0.015326  -0.002025
   68  O  6  X    0.000735   0.002968   0.005091   0.002803   0.000101
   69  O  6  Y   -0.000954  -0.003314  -0.007366  -0.002945   0.002049
   70  O  6  Z    0.000222  -0.000764  -0.000605  -0.001803  -0.001252
   71  O  6  S   -0.003774   0.014064   0.025927  -0.009756  -0.000963
   72  O  6  X    0.000835   0.003027   0.003725  -0.003832  -0.002458
   73  O  6  Y    0.000601  -0.006117  -0.004084  -0.003087  -0.002177
   74  O  6  Z    0.000100  -0.003800   0.005658  -0.001530   0.000037
   75  O  6 XX   -0.000388   0.000619  -0.001288  -0.001532   0.000472
   76  O  6 YY   -0.000375   0.000758  -0.000706  -0.001155   0.000183
   77  O  6 ZZ   -0.000451   0.000443  -0.001510  -0.001513   0.000628
   78  O  6 XY   -0.000206  -0.000682  -0.000908  -0.000375   0.000145
   79  O  6 XZ   -0.000010  -0.000429   0.000145  -0.000168  -0.000038
   80  O  6 YZ   -0.000017   0.000254  -0.000364   0.000251   0.000291
   81  C  7  S    0.000164  -0.000322  -0.002286  -0.000972  -0.000085
   82  C  7  S    0.000713  -0.001443  -0.017512  -0.009905  -0.001218
   83  C  7  X   -0.000429   0.000718   0.000997  -0.000697  -0.000530
   84  C  7  Y   -0.001763  -0.000261  -0.000359  -0.001117   0.000135
   85  C  7  Z    0.000188   0.000112   0.000368  -0.000205  -0.000253
   86  C  7  S    0.002205   0.006214   0.056049   0.019728   0.004559
   87  C  7  X   -0.000454  -0.003634  -0.017612  -0.004429  -0.002727
   88  C  7  Y    0.001482   0.002193  -0.016856  -0.013872  -0.001044
   89  C  7  Z   -0.002102   0.000277  -0.017650  -0.003180  -0.000796
   90  C  7  S   -0.017329  -0.019247   0.201991  -0.260324  -0.092047
   91  C  7  X    0.003057   0.003866  -0.024217   0.045933   0.007411
   92  C  7  Y    0.004854  -0.010513   0.043911   0.033789   0.012763
   93  C  7  Z    0.008320   0.004735  -0.040317   0.034821   0.018404
   94  C  7 XX   -0.000450  -0.000479  -0.003295  -0.001335  -0.000610
   95  C  7 YY   -0.000861  -0.000584   0.007106   0.007713   0.001574
   96  C  7 ZZ   -0.000132  -0.000457  -0.002822  -0.002775   0.000041
   97  C  7 XY   -0.000230  -0.000123   0.006110   0.004599  -0.000065
   98  C  7 XZ    0.000104   0.000164   0.002108  -0.000026   0.000137
   99  C  7 YZ   -0.000140  -0.000100   0.000616   0.000007   0.000524
  100  H  8  S   -0.000766   0.000159  -0.000340  -0.000129   0.000218
  101  H  8  S    0.000276  -0.000014  -0.000718  -0.003926  -0.001863
  102  H  9  S   -0.000832  -0.000270  -0.000779  -0.000035  -0.000797
  103  H  9  S    0.000712  -0.005485  -0.001688  -0.002400   0.007049
  104  S 10  S   -0.293213   0.000003   0.006003  -0.000793  -0.000121
  105  S 10  S    1.094928  -0.000004  -0.023174   0.003467   0.000452
  106  S 10  X   -0.001308  -0.000175   0.013612   0.453382   0.916682
  107  S 10  Y    0.016113   0.000479   0.869476   0.480068  -0.249480
  108  S 10  Z   -0.012636  -0.000040  -0.540627   0.781515  -0.378128
  109  S 10  S   -0.464068   0.000257   0.019734   0.000907  -0.000169
  110  S 10  X   -0.000041   0.000273  -0.002630  -0.042904  -0.082133
  111  S 10  Y   -0.001403  -0.000813  -0.087660  -0.046462   0.021840
  112  S 10  Z    0.000592   0.000061   0.051286  -0.070633   0.032931
  113  S 10  S    0.086508  -0.003144  -0.030686  -0.019512   0.000926
  114  S 10  X    0.000140   0.000225  -0.010447   0.034293   0.067306
  115  S 10  Y    0.002600  -0.000933   0.059045   0.022823  -0.018522
  116  S 10  Z   -0.000417   0.000417  -0.056986   0.063199  -0.024548
  117  S 10  S   -0.018374  -0.014670   0.043830   0.086544   0.034565
  118  S 10  X    0.001095  -0.002258   0.004378  -0.004152  -0.018240
  119  S 10  Y   -0.004439  -0.004826  -0.003412   0.014235   0.015902
  120  S 10  Z    0.001468   0.000633   0.004710  -0.011104   0.008103
  121  S 10 XX    0.158098   0.000026  -0.008257   0.001126   0.001084
  122  S 10 YY    0.158094  -0.000372  -0.012954  -0.002960  -0.001053
  123  S 10 ZZ    0.158183  -0.000217  -0.006430   0.001134  -0.000111
  124  S 10 XY    0.000011   0.000097  -0.003148  -0.001793   0.000665
  125  S 10 XZ    0.000060   0.000051   0.000152  -0.000493  -0.000052
  126  S 10 YZ   -0.000043   0.000021  -0.001474   0.001082  -0.000715
  127  H 11  S    0.001791   0.000018  -0.011564   0.006507   0.000968
  128  H 11  S   -0.003432   0.000096   0.034906  -0.012903  -0.003044
  129  H 12  S    0.000433  -0.001316  -0.000070  -0.001017  -0.000831
  130  H 12  S   -0.002246   0.009040  -0.000999   0.002447  -0.002835
  131  H 13  S   -0.000082   0.000188  -0.000829   0.000663   0.000306
  132  H 13  S   -0.000072  -0.000837   0.002270  -0.005271  -0.004707
  133  H 14  S    0.001760   0.000167   0.001112  -0.008411   0.008831
  134  H 14  S   -0.002785  -0.000318  -0.004952   0.020486  -0.015298
  135  H 15  S    0.001698  -0.000387   0.000254  -0.005584  -0.010486
  136  H 15  S   -0.003127   0.001268  -0.001693   0.016439   0.019847

                     11         12         13         14         15
                   -1.5452    -1.3936    -1.2087    -1.0183    -0.9432
                     A          A          A          A          A   
    1  N  1  S   -0.131644  -0.124789  -0.031551   0.026636  -0.013352
    2  N  1  S    0.265883   0.259498   0.063021  -0.038692   0.028934
    3  N  1  X    0.130665   0.179704   0.080787   0.177103   0.019539
    4  N  1  Y   -0.089633   0.006573   0.072309   0.251870   0.065430
    5  N  1  Z   -0.019069  -0.056520   0.015225  -0.168885   0.035596
    6  N  1  S    0.247748   0.335901   0.183032  -0.069458   0.086428
    7  N  1  X    0.106133   0.155721   0.055655   0.013858  -0.009313
    8  N  1  Y   -0.064922  -0.087011  -0.031734   0.152642   0.045082
    9  N  1  Z   -0.019196  -0.034694   0.013615  -0.084471   0.033700
   10  N  1  S   -0.201504  -0.040340  -0.033241  -0.080003  -0.057055
   11  N  1  X    0.048552   0.007694   0.023004  -0.009444   0.001341
   12  N  1  Y    0.025987  -0.014781   0.006129  -0.034018   0.036656
   13  N  1  Z   -0.030816  -0.026008  -0.023928   0.073422  -0.008714
   14  N  1 XX    0.017833   0.029156   0.018734   0.044048   0.005063
   15  N  1 YY    0.017962   0.002526  -0.012311  -0.033402  -0.002892
   16  N  1 ZZ   -0.003439   0.000943  -0.000941   0.003447   0.000665
   17  N  1 XY   -0.011964  -0.008909   0.004408   0.019902   0.008313
   18  N  1 XZ   -0.015526  -0.022931  -0.006171  -0.021329   0.000804
   19  N  1 YZ    0.000375   0.000453  -0.011628   0.013927  -0.009343
   20  H  2  S    0.017185   0.026351   0.011151  -0.003938   0.014522
   21  H  2  S    0.060040   0.046020   0.019772  -0.027275  -0.050480
   22  C  3  S   -0.116774   0.074562   0.104309   0.030875  -0.043473
   23  C  3  S    0.222851  -0.151524  -0.219713  -0.082364   0.105283
   24  C  3  X    0.181180  -0.080676  -0.153482  -0.169581  -0.027416
   25  C  3  Y   -0.004989   0.122199   0.095345  -0.332753  -0.133561
   26  C  3  Z    0.018509  -0.070500   0.280835  -0.192356   0.291940
   27  C  3  S    0.175015  -0.145228  -0.418114  -0.050856   0.223493
   28  C  3  X    0.173326  -0.147669  -0.266428  -0.044758  -0.138329
   29  C  3  Y   -0.045331   0.036699   0.062439  -0.140070  -0.066919
   30  C  3  Z    0.006572   0.036622  -0.019796  -0.077615   0.114223
   31  C  3  S    0.656833   0.199457  -0.120318   0.059483   0.476555
   32  C  3  X   -0.096139   0.033018   0.026164   0.013152  -0.200530
   33  C  3  Y    0.028665   0.007065   0.013546   0.117862   0.035960
   34  C  3  Z    0.065476   0.087919   0.010136  -0.035955   0.017292
   35  C  3 XX    0.022652  -0.001925  -0.015105  -0.036530  -0.023872
   36  C  3 YY   -0.004658  -0.008050  -0.002562   0.037208   0.019110
   37  C  3 ZZ   -0.001383  -0.007034   0.009084  -0.000457   0.008993
   38  C  3 XY   -0.003772   0.032297   0.016456  -0.057440  -0.017591
   39  C  3 XZ    0.009361  -0.018374   0.048716  -0.034883   0.044145
   40  C  3 YZ   -0.001975   0.012196  -0.032084   0.002162  -0.035923
   41  H  4  S    0.074606  -0.055518  -0.256501   0.162900  -0.103045
   42  H  4  S   -0.069657   0.064570  -0.005321   0.061056  -0.065592
   43  C  5  S   -0.002062   0.001818   0.003753  -0.004879  -0.003752
   44  C  5  S    0.003826  -0.006066  -0.003347  -0.007679   0.020776
   45  C  5  X    0.006891  -0.007378  -0.007290  -0.003230   0.003928
   46  C  5  Y   -0.002082   0.001562   0.002557  -0.008232  -0.004286
   47  C  5  Z    0.000810  -0.001366   0.002907  -0.005291   0.002590
   48  C  5  S    0.056145  -0.047058  -0.081437   0.038122  -0.149214
   49  C  5  X    0.045662  -0.021740  -0.039748   0.019844  -0.086556
   50  C  5  Y    0.003485   0.004032   0.004559   0.112205   0.007574
   51  C  5  Z   -0.003026  -0.000397  -0.012013   0.056859  -0.035390
   52  C  5  S   -0.321356  -0.020531   0.106505  -0.099105  -0.412640
   53  C  5  X   -0.075851  -0.006259   0.026363  -0.032164  -0.082497
   54  C  5  Y   -0.002493   0.003597  -0.010963   0.003142  -0.004340
   55  C  5  Z   -0.002253  -0.023870   0.003868  -0.005731   0.006125
   56  C  5 XX    0.001039  -0.001453   0.000301   0.002726  -0.002933
   57  C  5 YY   -0.000942  -0.000211  -0.000048   0.001693  -0.001064
   58  C  5 ZZ   -0.001700   0.000669   0.000579  -0.004288  -0.000893
   59  C  5 XY   -0.000289   0.001117   0.003516  -0.002044   0.001643
   60  C  5 XZ    0.000360  -0.001537   0.001173  -0.001801  -0.001329
   61  C  5 YZ    0.000675  -0.000796  -0.002494   0.004126  -0.002344
   62  O  6  S   -0.000507   0.000424  -0.000177   0.001515  -0.000146
   63  O  6  S   -0.002280   0.002482   0.000786   0.006310   0.000690
   64  O  6  X   -0.000830   0.000249   0.000276  -0.001185   0.000427
   65  O  6  Y    0.000308  -0.000349  -0.000565   0.000077  -0.001191
   66  O  6  Z    0.000123   0.000049  -0.000653   0.000443  -0.000353
   67  O  6  S    0.004865  -0.010084   0.006884  -0.075828   0.009837
   68  O  6  X    0.002026  -0.002066   0.003064  -0.018109   0.011459
   69  O  6  Y   -0.003592   0.002223  -0.002451   0.018904  -0.003110
   70  O  6  Z   -0.000421  -0.001193   0.003889   0.003946   0.004460
   71  O  6  S    0.027301   0.005641  -0.015392  -0.019758  -0.009359
   72  O  6  X    0.006795   0.002296   0.000058  -0.000166  -0.005173
   73  O  6  Y   -0.006188  -0.005307   0.013138   0.002771   0.009240
   74  O  6  Z   -0.006604   0.005375  -0.002015   0.003535  -0.003297
   75  O  6 XX   -0.000391   0.000628  -0.002122   0.003538  -0.000404
   76  O  6 YY   -0.000901   0.001022   0.001193   0.001045   0.001973
   77  O  6 ZZ   -0.002515   0.001245  -0.000265   0.001972   0.000672
   78  O  6 XY    0.000387  -0.000102  -0.000323   0.000766  -0.001442
   79  O  6 XZ    0.000302  -0.000336  -0.000366   0.000558  -0.001377
   80  O  6 YZ    0.000779   0.000190  -0.000654   0.000853  -0.001080
   81  C  7  S   -0.072905   0.119421  -0.111450  -0.049622   0.012160
   82  C  7  S    0.133151  -0.218988   0.197829   0.121203   0.003172
   83  C  7  X    0.021910  -0.036645   0.060602   0.049163  -0.287431
   84  C  7  Y    0.093745  -0.144825   0.157662  -0.011234  -0.043350
   85  C  7  Z   -0.068951   0.091240   0.027930  -0.006674  -0.221577
   86  C  7  S    0.069702  -0.231549   0.453628   0.079843  -0.111822
   87  C  7  X    0.023262  -0.045850   0.109388   0.033090  -0.084698
   88  C  7  Y    0.049744  -0.109887   0.209692  -0.023134  -0.158067
   89  C  7  Z    0.004180   0.035844  -0.093949  -0.019989  -0.060429
   90  C  7  S   -0.245189  -0.305666   0.220636   0.146370   0.171056
   91  C  7  X    0.037266   0.023159  -0.027216  -0.039352   0.025633
   92  C  7  Y   -0.008061   0.021018  -0.050183  -0.088668  -0.094270
   93  C  7  Z    0.041601   0.028492  -0.009159  -0.022520  -0.040150
   94  C  7 XX    0.004077  -0.007838   0.011978   0.018439  -0.034270
   95  C  7 YY    0.007073  -0.006893   0.013614  -0.018497  -0.001690
   96  C  7 ZZ    0.012911  -0.018835   0.002557   0.014267   0.023171
   97  C  7 XY    0.007594  -0.011763   0.016523   0.006467  -0.036022
   98  C  7 XZ   -0.004891   0.008511  -0.009821  -0.002648   0.012071
   99  C  7 YZ   -0.011068   0.011497   0.004811   0.015048  -0.028172
  100  H  8  S    0.049060  -0.085812   0.105505   0.087517  -0.204075
  101  H  8  S   -0.015412   0.036570  -0.067686   0.014629  -0.109580
  102  H  9  S    0.026646  -0.053468   0.088750   0.034698  -0.052092
  103  H  9  S   -0.019571   0.041197  -0.049970   0.026156   0.028473
  104  S 10  S    0.001245  -0.003119   0.002599   0.017526   0.045285
  105  S 10  S   -0.005362   0.013803  -0.012284  -0.073003  -0.188707
  106  S 10  X   -0.000806   0.001762  -0.001805  -0.002558   0.003745
  107  S 10  Y   -0.002960   0.006127  -0.004953  -0.015097  -0.029674
  108  S 10  Z    0.001009  -0.001714  -0.000437   0.007463   0.021407
  109  S 10  S    0.022735  -0.058445   0.048791   0.365376   0.958267
  110  S 10  X    0.003350  -0.007288   0.009046   0.007458  -0.018669
  111  S 10  Y    0.011873  -0.022376   0.021238   0.051201   0.100688
  112  S 10  Z   -0.003964   0.005326   0.001985  -0.026318  -0.079774
  113  S 10  S    0.015531  -0.019095   0.058288  -0.101757  -0.277782
  114  S 10  X    0.003175   0.007716  -0.014596  -0.021256   0.009911
  115  S 10  Y    0.000317  -0.004010   0.026086  -0.015712  -0.076004
  116  S 10  Z    0.016874  -0.016333   0.016302   0.001540   0.030693
  117  S 10  S    0.044781   0.128095  -0.146886  -0.052973  -0.102620
  118  S 10  X    0.003331   0.010423  -0.013582  -0.012214  -0.029560
  119  S 10  Y    0.012542   0.040628  -0.050711  -0.004822  -0.010628
  120  S 10  Z   -0.002529   0.000262  -0.008389  -0.015286  -0.001247
  121  S 10 XX   -0.004463   0.012473  -0.012005  -0.069736  -0.183093
  122  S 10 YY   -0.000561   0.004993  -0.003691  -0.058598  -0.167731
  123  S 10 ZZ   -0.005138   0.012968  -0.012724  -0.066353  -0.170203
  124  S 10 XY    0.001711  -0.002388   0.002206   0.000299  -0.003967
  125  S 10 XZ    0.000549  -0.001136   0.001948  -0.000597  -0.000427
  126  S 10 YZ    0.000072   0.000007   0.002615  -0.004912  -0.013949
  127  H 11  S    0.000446   0.000033  -0.000933   0.002788   0.006657
  128  H 11  S   -0.011629   0.007897  -0.006693   0.011979   0.007609
  129  H 12  S   -0.000551   0.000724   0.000694   0.004423   0.002946
  130  H 12  S    0.004079   0.002131  -0.006143   0.078587  -0.012124
  131  H 13  S    0.133483   0.189095   0.080502   0.216202   0.027434
  132  H 13  S   -0.049266  -0.043516  -0.004912   0.161048   0.020353
  133  H 14  S    0.000360  -0.000382  -0.000210   0.004701   0.012802
  134  H 14  S    0.001829  -0.004260   0.003742   0.012421   0.019608
  135  H 15  S    0.000033  -0.000290  -0.000288   0.003644   0.012574
  136  H 15  S   -0.002166   0.010223  -0.023417   0.005637   0.031907

                     16         17         18         19         20
                   -0.9049    -0.8619    -0.8056    -0.6774    -0.5676
                     A          A          A          A          A   
    1  N  1  S   -0.012758   0.020170   0.090281  -0.028389   0.028334
    2  N  1  S    0.018084  -0.047684  -0.217058   0.129155  -0.038885
    3  N  1  X   -0.070259   0.056183   0.139958  -0.325498  -0.025357
    4  N  1  Y   -0.137503  -0.026037  -0.289165   0.128128   0.283611
    5  N  1  Z    0.025448  -0.006197  -0.328953  -0.415320  -0.022313
    6  N  1  S    0.082545  -0.104191  -0.363328  -0.170883  -0.506704
    7  N  1  X   -0.015816   0.024376   0.034867  -0.255771  -0.026428
    8  N  1  Y   -0.124235  -0.008418  -0.299811   0.315827   0.478840
    9  N  1  Z   -0.004566  -0.000040  -0.234726  -0.317686  -0.010681
   10  N  1  S   -0.068786  -0.059800  -0.437086  -0.861023  -0.256559
   11  N  1  X    0.046915   0.089270   0.057265  -0.094100  -0.051228
   12  N  1  Y   -0.008626  -0.032526  -0.044391   0.184062   0.059828
   13  N  1  Z   -0.028010  -0.020923   0.035192   0.072088   0.050584
   14  N  1 XX   -0.018654   0.011746   0.012675  -0.043131   0.000312
   15  N  1 YY    0.014893  -0.008854  -0.018031   0.034745   0.005648
   16  N  1 ZZ   -0.000922  -0.008252  -0.019723   0.046882   0.002002
   17  N  1 XY   -0.013120  -0.005295  -0.028161   0.026528   0.020898
   18  N  1 XZ    0.003971   0.001163  -0.034052  -0.055126   0.002137
   19  N  1 YZ    0.004339  -0.004076   0.015430   0.025017   0.003982
   20  H  2  S   -0.007260  -0.029593  -0.159238   0.096895   0.073488
   21  H  2  S    0.057836   0.055947   0.208823  -0.101058  -0.078456
   22  C  3  S    0.026442   0.024345   0.000951  -0.039416   0.058343
   23  C  3  S   -0.078291  -0.092072  -0.013748   0.100725  -0.216908
   24  C  3  X    0.035888   0.089911   0.093630   0.024839   0.528386
   25  C  3  Y    0.210843  -0.015965   0.063236   0.185592   0.033337
   26  C  3  Z   -0.177609   0.123918   0.078959   0.024974   0.030773
   27  C  3  S   -0.129592  -0.035932  -0.035049   0.416064   0.194673
   28  C  3  X    0.026546   0.280382   0.104667   0.037100   0.876315
   29  C  3  Y   -0.024395  -0.043407   0.011046   0.219284   0.248664
   30  C  3  Z   -0.059914   0.028873   0.080198   0.065551   0.086187
   31  C  3  S    0.449965   0.896110   0.808667   1.621217   0.411862
   32  C  3  X   -0.142867  -0.097789  -0.076732   0.066497   0.212380
   33  C  3  Y    0.057043  -0.065388   0.182919   0.346003   0.077309
   34  C  3  Z    0.071592   0.147996   0.051458   0.178157   0.067013
   35  C  3 XX    0.017578   0.027197   0.024218  -0.005536   0.098006
   36  C  3 YY   -0.016038   0.000031  -0.023370  -0.005531  -0.038425
   37  C  3 ZZ   -0.007988  -0.025193  -0.000635   0.010384  -0.034212
   38  C  3 XY    0.035735  -0.024903   0.009102   0.031182  -0.073900
   39  C  3 XZ   -0.030645   0.032636   0.006949  -0.007179   0.016372
   40  C  3 YZ    0.021851  -0.019651  -0.021336  -0.016968  -0.012183
   41  H  4  S    0.014288  -0.131397  -0.095937  -0.095745   0.002310
   42  H  4  S   -0.008130  -0.171963  -0.040322  -0.019625  -0.012677
   43  C  5  S    0.002345   0.005608   0.003869  -0.001792   0.041917
   44  C  5  S   -0.011037  -0.028349  -0.010630   0.024577  -0.090462
   45  C  5  X   -0.003624  -0.010069  -0.005497   0.012422  -0.042624
   46  C  5  Y    0.005998   0.005962   0.003551   0.003549   0.041400
   47  C  5  Z   -0.002178  -0.000077   0.000484   0.000451   0.002888
   48  C  5  S    0.053531   0.211583   0.066835  -0.140941   0.446898
   49  C  5  X    0.021558   0.132860   0.060070  -0.085771   0.252497
   50  C  5  Y    0.000753   0.054172   0.002536  -0.165079  -0.004554
   51  C  5  Z    0.021999   0.033686  -0.005253  -0.063786   0.027325
   52  C  5  S   -0.433764  -0.230821  -0.389930  -0.497397   0.016357
   53  C  5  X   -0.095342  -0.055206  -0.085556  -0.104510  -0.019831
   54  C  5  Y    0.013285   0.023539  -0.006130  -0.139587  -0.014184
   55  C  5  Z   -0.047709   0.013849  -0.012106  -0.045975  -0.014905
   56  C  5 XX   -0.000477   0.003038   0.000369  -0.003520   0.008118
   57  C  5 YY   -0.000245   0.000470  -0.000370  -0.003171   0.010438
   58  C  5 ZZ    0.000516  -0.002290  -0.000234   0.005263   0.009766
   59  C  5 XY    0.001008   0.001694   0.001624  -0.001526   0.006812
   60  C  5 XZ    0.000887   0.000750  -0.001388   0.000857  -0.002357
   61  C  5 YZ    0.000078   0.001782  -0.000490  -0.004123  -0.000109
   62  O  6  S    0.000341   0.001178   0.000374  -0.002814   0.002640
   63  O  6  S    0.001205   0.004709  -0.000058  -0.010517   0.002180
   64  O  6  X    0.000160   0.000211  -0.000331  -0.000139  -0.001484
   65  O  6  Y   -0.000286   0.000761  -0.000090  -0.000405   0.002720
   66  O  6  Z    0.000183  -0.000528   0.000089   0.000175   0.000362
   67  O  6  S   -0.009957  -0.049706  -0.001358   0.114720  -0.047634
   68  O  6  X   -0.003342  -0.028569  -0.006234   0.044769  -0.035562
   69  O  6  Y    0.006062   0.010106  -0.000179  -0.023904   0.014805
   70  O  6  Z   -0.002592   0.006247  -0.000519  -0.014608   0.002465
   71  O  6  S    0.002146  -0.028174   0.013892   0.043778   0.036899
   72  O  6  X   -0.014892   0.002048  -0.008715  -0.035616  -0.008555
   73  O  6  Y    0.000768   0.001944  -0.018202  -0.007769  -0.027963
   74  O  6  Z   -0.000973  -0.012983  -0.005019  -0.002019  -0.010065
   75  O  6 XX    0.001454   0.000070  -0.001079  -0.003767   0.001073
   76  O  6 YY    0.000009   0.002052   0.000425  -0.004541  -0.000043
   77  O  6 ZZ    0.001032   0.000405  -0.000117  -0.003064  -0.000378
   78  O  6 XY    0.000826   0.003814   0.000974  -0.003655   0.008543
   79  O  6 XZ    0.000262   0.001179   0.000006  -0.001745   0.002574
   80  O  6 YZ    0.000800   0.000908   0.000416  -0.000434   0.000052
   81  C  7  S   -0.011009   0.033851  -0.005944  -0.019883   0.014846
   82  C  7  S    0.009698  -0.087366   0.046653   0.068780  -0.023291
   83  C  7  X    0.096009   0.295288  -0.107960   0.065831  -0.048194
   84  C  7  Y   -0.104561  -0.174808   0.063586  -0.007858   0.136648
   85  C  7  Z    0.157498  -0.320839   0.020461  -0.069816   0.050455
   86  C  7  S    0.036706  -0.165156  -0.073605  -0.008354  -0.171840
   87  C  7  X    0.023758   0.090313  -0.056308  -0.027986  -0.021223
   88  C  7  Y    0.018271  -0.169570  -0.041070  -0.095755  -0.021067
   89  C  7  Z    0.066693  -0.181661   0.055860  -0.016693   0.094301
   90  C  7  S    0.057801  -0.549672  -0.281248  -0.466218  -0.302474
   91  C  7  X   -0.033873   0.044250   0.028356  -0.025575  -0.010841
   92  C  7  Y   -0.026839  -0.099290  -0.064820  -0.243267  -0.069590
   93  C  7  Z   -0.049111   0.122412   0.036016   0.120962   0.054884
   94  C  7 XX    0.021032   0.024386  -0.008317   0.011961  -0.025484
   95  C  7 YY   -0.015660  -0.044965   0.015192  -0.008122   0.026703
   96  C  7 ZZ   -0.012276   0.007930   0.004333   0.010913  -0.005656
   97  C  7 XY    0.010254   0.036692  -0.011570   0.001174   0.008019
   98  C  7 XZ   -0.001725  -0.022882   0.003678  -0.000991  -0.016452
   99  C  7 YZ    0.030877  -0.048663   0.001857  -0.006733  -0.001658
  100  H  8  S    0.092964   0.158779  -0.070164   0.070039  -0.137556
  101  H  8  S    0.048244   0.123914  -0.025028   0.061097  -0.133834
  102  H  9  S    0.036195  -0.272498   0.056742  -0.035927   0.085628
  103  H  9  S   -0.024872   0.013951   0.013912  -0.009055   0.045044
  104  S 10  S    0.076533   0.004647   0.001540  -0.003232   0.012637
  105  S 10  S   -0.319300  -0.018340  -0.005620   0.014028  -0.053791
  106  S 10  X   -0.000644  -0.005381   0.002528  -0.003407   0.010423
  107  S 10  Y   -0.041012   0.002011  -0.001263  -0.001393   0.019700
  108  S 10  Z    0.027416   0.008306  -0.000935  -0.001566  -0.000625
  109  S 10  S    1.624276   0.102200   0.035508  -0.069403   0.280967
  110  S 10  X    0.001244   0.015761  -0.008992   0.009839  -0.035759
  111  S 10  Y    0.161689  -0.011180   0.004073  -0.000609  -0.064837
  112  S 10  Z   -0.107406  -0.030159   0.002170   0.006807   0.000731
  113  S 10  S   -0.275750  -0.080400  -0.036031  -0.057525   0.009265
  114  S 10  X    0.002388  -0.056553   0.008095  -0.015750  -0.000482
  115  S 10  Y   -0.034094  -0.013295  -0.014015  -0.030009   0.040681
  116  S 10  Z    0.008952   0.070516  -0.013640  -0.012721  -0.044768
  117  S 10  S    0.059519  -0.027890   0.092060  -0.135929   0.044349
  118  S 10  X   -0.002741   0.012059  -0.006245  -0.009533  -0.010177
  119  S 10  Y    0.022084  -0.006977   0.039522  -0.026195   0.003265
  120  S 10  Z   -0.005149  -0.011639  -0.014323  -0.017954  -0.005029
  121  S 10 XX   -0.302929  -0.017057  -0.005793   0.013561  -0.049718
  122  S 10 YY   -0.282785  -0.022328  -0.005204   0.012793  -0.064414
  123  S 10 ZZ   -0.291206  -0.014852  -0.005842   0.012607  -0.048454
  124  S 10 XY    0.001257  -0.001666  -0.001333   0.001310  -0.006962
  125  S 10 XZ   -0.001754   0.001182  -0.000403  -0.001455   0.000243
  126  S 10 YZ   -0.015513  -0.001541  -0.000979  -0.001632   0.003729
  127  H 11  S    0.012858   0.000629   0.000941   0.000463   0.004876
  128  H 11  S    0.015368  -0.007341   0.003812   0.006703   0.018159
  129  H 12  S   -0.003068  -0.002498  -0.003036  -0.003650  -0.026111
  130  H 12  S    0.007977   0.032763   0.013989  -0.107057   0.029362
  131  H 13  S   -0.087104   0.030123   0.181247   0.030348   0.007937
  132  H 13  S   -0.079025  -0.021353   0.245459   0.185447   0.103828
  133  H 14  S    0.020996   0.003247  -0.000098  -0.002658   0.007086
  134  H 14  S    0.013784   0.048708  -0.004639   0.008155  -0.017113
  135  H 15  S    0.020515   0.001900   0.000875  -0.001331   0.005638
  136  H 15  S    0.016849  -0.017120   0.008253   0.001910  -0.005197

                     21         22         23         24         25
                   -0.4839    -0.4246    -0.3491    -0.3142    -0.3055
                     A          A          A          A          A   
    1  N  1  S   -0.041340   0.042983  -0.048823  -0.034513  -0.007966
    2  N  1  S    0.110434  -0.085795   0.121692   0.054900   0.037046
    3  N  1  X    0.072943  -0.259818   0.052812  -0.055461   0.059577
    4  N  1  Y   -0.098284   0.038162  -0.096109  -0.014547   0.006024
    5  N  1  Z    0.030187   0.105297  -0.078505  -0.198274   0.020296
    6  N  1  S    0.348141  -0.693800   0.469869   0.384357  -0.033660
    7  N  1  X    0.065804  -0.280914   0.070767   0.121758   0.088990
    8  N  1  Y   -0.039925   0.005761  -0.132577  -0.226338   0.090567
    9  N  1  Z   -0.028537   0.130870  -0.153357  -0.312631  -0.007428
   10  N  1  S   -0.243864   0.007098   0.122483   1.815142  -0.234171
   11  N  1  X   -0.062737   0.130585  -0.505870   0.196153  -0.277582
   12  N  1  Y    0.112124  -0.317004  -0.051077  -0.618549  -0.011689
   13  N  1  Z    0.002940  -0.002230  -0.031885  -0.065741   0.028477
   14  N  1 XX    0.008543  -0.022672   0.007094  -0.005264   0.011732
   15  N  1 YY    0.015571   0.002243  -0.010144   0.003713  -0.009752
   16  N  1 ZZ    0.001596   0.007970   0.017638   0.005961   0.005765
   17  N  1 XY   -0.021024   0.005183  -0.020738  -0.028763  -0.001105
   18  N  1 XZ   -0.000080   0.016659  -0.017468  -0.016611  -0.002730
   19  N  1 YZ    0.009889  -0.001672   0.001147   0.018685  -0.003664
   20  H  2  S   -0.006242   0.058047  -0.012536   0.051402  -0.012407
   21  H  2  S    0.006485   0.097548  -0.058271   0.208376  -0.030618
   22  C  3  S    0.043176   0.020564   0.110032   0.025862   0.034890
   23  C  3  S   -0.162302  -0.116434  -0.371283  -0.115980  -0.117497
   24  C  3  X    0.183721  -0.144500  -0.247786  -0.071946  -0.097775
   25  C  3  Y   -0.049478   0.199877   0.135829  -0.215733   0.095434
   26  C  3  Z   -0.091018   0.126525   0.115851  -0.155054   0.098872
   27  C  3  S    0.075390  -0.268297  -1.112380  -0.272124  -0.338494
   28  C  3  X    0.222406   0.286487  -0.023332   0.139738   0.164911
   29  C  3  Y   -0.197986   0.019966   0.091709  -0.518495   0.335780
   30  C  3  Z   -0.031083   0.164062   0.307114  -0.175275   0.187400
   31  C  3  S    1.192147   0.522212  -0.478662  -2.278897  -0.688402
   32  C  3  X   -0.190859   1.889178   1.056794   0.491257   1.142339
   33  C  3  Y   -0.026631  -0.177400  -0.240110  -0.834525   0.123762
   34  C  3  Z    0.074205   0.981976   0.279079   0.351568   0.133147
   35  C  3 XX    0.029991  -0.019253  -0.032325  -0.002074  -0.011723
   36  C  3 YY    0.024061  -0.005853   0.007788   0.036325  -0.012980
   37  C  3 ZZ   -0.041938   0.012197   0.019538  -0.034353   0.024234
   38  C  3 XY   -0.027152   0.023918   0.019809  -0.028138   0.016600
   39  C  3 XZ   -0.017928   0.001447   0.017475  -0.023553   0.013129
   40  C  3 YZ   -0.021042  -0.008491  -0.014934  -0.019145  -0.005241
   41  H  4  S   -0.095121   0.027739   0.202650  -0.167356   0.154395
   42  H  4  S   -0.215254   0.201083   1.000001  -0.666416   0.598943
   43  C  5  S    0.018836  -0.004115   0.011160  -0.007520  -0.000050
   44  C  5  S   -0.043323  -0.007577  -0.029676  -0.017449  -0.016552
   45  C  5  X   -0.027974   0.007563  -0.006296  -0.001977   0.000729
   46  C  5  Y    0.015082   0.006231   0.013269  -0.008841   0.007542
   47  C  5  Z   -0.002116   0.002992  -0.000402  -0.006662  -0.000464
   48  C  5  S    0.176041   0.265301   0.207129   0.218413   0.119967
   49  C  5  X    0.062953   0.106863   0.061207   0.104766   0.112235
   50  C  5  Y    0.166562   0.002890   0.067513   0.116159  -0.161351
   51  C  5  Z    0.070572   0.015169   0.008039   0.070367  -0.034392
   52  C  5  S   -0.663913   3.180550   1.240295   2.297998   1.604345
   53  C  5  X   -0.194864   0.758015   0.215533   0.636433   0.385787
   54  C  5  Y    0.011971  -0.025950  -0.022717   0.210205  -0.167168
   55  C  5  Z    0.001179  -0.028318  -0.065798   0.031481  -0.032047
   56  C  5 XX    0.002343   0.006948   0.014133   0.003185   0.004504
   57  C  5 YY    0.006501  -0.000130   0.006701  -0.000972  -0.003740
   58  C  5 ZZ    0.003081  -0.002935   0.002788  -0.008316  -0.002106
   59  C  5 XY    0.005009  -0.002936   0.000775   0.004806  -0.000337
   60  C  5 XZ   -0.003146  -0.001447  -0.006236  -0.000023   0.000109
   61  C  5 YZ    0.003130   0.000986   0.000867   0.004549  -0.002716
   62  O  6  S    0.003839  -0.000789   0.001671  -0.001867  -0.001172
   63  O  6  S    0.011361   0.003784   0.006286  -0.009874  -0.005933
   64  O  6  X   -0.000932   0.004103   0.000822  -0.001337   0.000037
   65  O  6  Y    0.000172  -0.000357  -0.000146   0.000073   0.000173
   66  O  6  Z   -0.000398   0.000250   0.000662  -0.000446   0.001462
   67  O  6  S   -0.128806   0.000308  -0.052484   0.017865   0.074460
   68  O  6  X   -0.038322  -0.030757  -0.031497  -0.018933   0.011765
   69  O  6  Y    0.038837   0.017368   0.029840   0.014719  -0.024885
   70  O  6  Z    0.014343   0.007897   0.007754   0.007580  -0.020078
   71  O  6  S   -0.051734  -0.270784  -0.138936  -0.374441   0.089232
   72  O  6  X   -0.006580  -0.059722  -0.082548  -0.098923  -0.027899
   73  O  6  Y   -0.003630   0.038533  -0.005069   0.061879  -0.015478
   74  O  6  Z    0.007740  -0.003563   0.042906   0.000028   0.001456
   75  O  6 XX    0.005734  -0.001712   0.000820  -0.005736  -0.002674
   76  O  6 YY    0.003168   0.000124  -0.000280  -0.005262  -0.001621
   77  O  6 ZZ    0.004339   0.002915   0.003654  -0.006386  -0.000895
   78  O  6 XY    0.004982   0.003737   0.003289   0.001192  -0.000997
   79  O  6 XZ    0.001818   0.001461   0.001966   0.000642  -0.000469
   80  O  6 YZ   -0.000068  -0.001151  -0.002402   0.002110   0.001206
   81  C  7  S   -0.069279  -0.000769  -0.028446   0.033423  -0.021988
   82  C  7  S    0.221561   0.031027   0.077847  -0.064387   0.079747
   83  C  7  X   -0.154498  -0.158104  -0.033132  -0.161221   0.017082
   84  C  7  Y   -0.324778  -0.159871   0.157103   0.020051   0.056937
   85  C  7  Z    0.004519  -0.009771  -0.149804  -0.053361  -0.070197
   86  C  7  S   -0.035893  -0.330111   0.203630  -0.479554   0.180074
   87  C  7  X   -0.104929  -0.227195   0.030432  -0.167056  -0.215232
   88  C  7  Y   -0.454034  -0.195061   0.087366   0.114277   0.001342
   89  C  7  Z   -0.051739   0.024568  -0.174567   0.013040   0.055546
   90  C  7  S   -0.096319  -2.992118  -0.447775  -1.343305  -0.541908
   91  C  7  X    0.003384   0.006870  -0.241921   0.342590  -0.389329
   92  C  7  Y   -0.239269  -0.640145  -0.276900   0.568523  -0.494340
   93  C  7  Z    0.041076   0.722404   0.198197   0.105360   0.407345
   94  C  7 XX    0.026560   0.005893  -0.006496  -0.009293   0.017294
   95  C  7 YY   -0.074778  -0.019303   0.026434  -0.006510   0.006385
   96  C  7 ZZ    0.053237   0.003241  -0.009718   0.002950  -0.008418
   97  C  7 XY   -0.030366  -0.029013  -0.000442   0.004473   0.006795
   98  C  7 XZ   -0.001756   0.004547  -0.009210   0.001661  -0.002436
   99  C  7 YZ    0.039332   0.012530  -0.003448   0.007547  -0.021113
  100  H  8  S    0.005438  -0.001234  -0.049328  -0.017509   0.051968
  101  H  8  S    0.025394   0.242500  -0.173184   0.289496   0.187950
  102  H  9  S    0.116607   0.014677  -0.015451   0.045812  -0.107315
  103  H  9  S    0.243272   0.079156  -0.040584   0.034802  -0.225216
  104  S 10  S   -0.028140  -0.011119  -0.006683  -0.006551   0.005801
[...]
   11            -0.000006  -0.000000  -0.000000   0.000000   0.000008
   12            -0.000000  -0.000011  -0.000000   0.000020   0.000001
   13             0.000000  -0.000000   0.000325  -0.000008  -0.000004
   14            -0.000007  -0.000000   0.000000  -0.000002   0.000003
   15            -0.000007   0.000000  -0.000000  -0.000004   0.000001

                      6          7          8          9         10

                  2.000000   2.000000   2.000000   2.000000   2.000000

    1             0.000146  -0.001881   0.000239  -0.000049   0.000006
    2            -0.000000   0.000012  -0.000000  -0.000000   0.000000
    3            -0.001454   0.014942  -0.005491   0.000846   0.000472
    4            -0.000005  -0.000195   0.000089   0.000003  -0.000003
    5             0.003613   1.982344   0.000693   0.000117  -0.000277
    6            -0.000011   0.005776   0.000043  -0.000004  -0.000003
    7            -0.003542  -0.001843   0.005828  -0.000756  -0.000233
    8             0.000007  -0.000000  -0.000005  -0.000033  -0.000011
    9             0.000017  -0.000031  -0.000011  -0.000023  -0.000023
   10             2.003022  -0.000785   2.000274   2.001247   2.001317
   11            -0.000657  -0.000000  -0.001668  -0.000295  -0.000012
   12            -0.000008   0.001655  -0.000002  -0.000003   0.000003
   13            -0.000000  -0.000001  -0.000000  -0.000000  -0.000000
   14            -0.000526  -0.000000   0.000006  -0.000669  -0.000469
   15            -0.000601   0.000006   0.000004  -0.000382  -0.000768

                     11         12         13         14         15

                  2.000000   2.000000   2.000000   2.000000   2.000000

    1             0.613517   0.761080   0.090553   0.613009   0.056053
    2             0.040991   0.028946   0.004699   0.001621  -0.005031
    3             1.464894   0.254348   0.837064   0.766159   0.673797
    4            -0.025008  -0.008153   0.315712   0.136773   0.045682
    5            -0.218167   0.026676   0.012668  -0.061432  -0.131010
    6             0.009489  -0.001539   0.000764   0.002704  -0.002011
    7             0.028084   0.832219   0.688676   0.209699   0.752663
    8             0.005866   0.018373   0.019856   0.039517   0.261119
    9            -0.003860  -0.005911   0.013713   0.009742   0.009986
   10             0.030431  -0.054215  -0.009243   0.024691   0.306614
   11            -0.000244  -0.000360  -0.000335   0.001965   0.003116
   12             0.000252  -0.000144   0.000550   0.008017  -0.001135
   13             0.053728   0.148999   0.026115   0.242819   0.001468
   14             0.000111   0.000411  -0.000009   0.003374   0.011109
   15            -0.000084  -0.000731  -0.000783   0.001343   0.017581

                     16         17         18         19         20

                  2.000000   2.000000   2.000000   2.000000   2.000000

    1             0.126102   0.108609   1.795994   1.566581   0.449057
    2            -0.001888  -0.007817  -0.034545   0.003611   0.011569
    3             0.390183  -0.030365  -0.201752   0.422396   1.602100
    4             0.000091   0.089483   0.033178   0.023740   0.002802
    5            -0.122026  -0.015687   0.086649  -0.179189  -0.436834
    6            -0.000033   0.010429   0.002692   0.007025  -0.004636
    7             0.259306   1.358956   0.152702   0.114274   0.226891
    8             0.061400   0.159414   0.025613   0.010424   0.095901
    9            -0.000978   0.328241   0.013693   0.006342   0.023331
   10             1.207219  -0.005256  -0.011806   0.008934   0.018404
   11             0.012423  -0.000066   0.000040  -0.000118   0.002268
   12             0.000093  -0.003466  -0.000793  -0.001254  -0.007710
   13             0.032465   0.001701   0.138005   0.017537   0.017377
   14             0.017193   0.005297   0.000134  -0.000260  -0.000695
   15             0.018449   0.000526   0.000194  -0.000042   0.000176

                     21         22         23         24         25

                  2.000000   2.000000   2.000000   2.000000   2.000000

    1             0.126170   0.139407   0.279452   0.629160   0.089395
    2            -0.000816   0.044182   0.008571   0.031498   0.003545
    3            -0.021876   1.918241   0.008789  -0.068808  -0.255807
    4             0.064257   0.110574   0.814421   0.156642   0.198816
    5             0.135597   1.546098   0.151174   0.307666   0.103943
    6             0.024006  -0.052791   0.009267  -0.026115   0.001963
    7             1.029276  -2.424694   0.170992   0.041064   0.366442
    8             0.003188   0.100444   0.037011   0.089851  -0.023079
    9             0.103747   0.014138   0.008933   0.010773   0.063679
   10             0.398317   0.059438   0.307002   0.565194   1.201391
   11             0.001921   0.001285   0.007156   0.015300   0.004644
   12            -0.012704  -0.000150  -0.000421   0.010265  -0.001643
   13             0.139848   0.540713   0.177058   0.206485   0.009860
   14             0.006859   0.001255   0.019229   0.000742   0.153726
   15             0.002210   0.001860   0.001365   0.030281   0.083125

                     26         27         28         29

                  2.000000   2.000000   2.000000   2.000000

    1             0.198776   1.058368   0.163184   0.632711
    2            -0.001448  -0.014429   0.050551  -0.027414
    3             0.255049   0.083356  -1.104308  -0.770114
    4             0.007623  -0.001333   0.189739   0.115193
    5            -0.035823   0.132234  -0.014933  -0.474117
    6             0.000541  -0.005250   0.018799   0.014726
    7             0.032678   0.274886   1.760903   1.867982
    8             0.135432   0.060257   0.381460   0.038450
    9             0.020842   0.104094  -0.000262   0.102800
   10             1.024944   0.225476   0.458365   0.385651
   11             0.090395   0.000128  -0.001245   0.005378
   12            -0.001597   0.006336   0.000069  -0.021957
   13             0.254952   0.003137   0.098302   0.125812
   14             0.003074   0.017711  -0.000635   0.002048
   15             0.014563   0.055027   0.000010   0.002850

               ----- POPULATIONS IN EACH AO -----
                             MULLIKEN      LOWDIN
              1  N  1  S      1.99376     1.97829
              2  N  1  S      0.94141     0.73866
              3  N  1  X      1.07027     1.07932
              4  N  1  Y      1.10697     1.09740
              5  N  1  Z      1.16819     1.18540
              6  N  1  S      0.73469     0.38901
              7  N  1  X      0.46041     0.54397
              8  N  1  Y      0.79226     0.62009
              9  N  1  Z      0.60415     0.66836
             10  N  1  S      1.12924     0.32670
             11  N  1  X      0.62002     0.52442
             12  N  1  Y      0.48909     0.45231
             13  N  1  Z      0.17777     0.43825
             14  N  1 XX      0.02148     0.21905
             15  N  1 YY      0.06482     0.26862
             16  N  1 ZZ      0.03445     0.23359
             17  N  1 XY      0.05155     0.12064
             18  N  1 XZ      0.02234     0.06417
             19  N  1 YZ      0.01517     0.02806
             20  H  2  S      0.31509     0.29766
             21  H  2  S     -0.17908     0.14538
             22  C  3  S      1.99968     1.98195
             23  C  3  S      1.14885     0.72569
             24  C  3  X      1.28366     1.23346
             25  C  3  Y      1.27565     1.20219
             26  C  3  Z      1.41458     1.35915
             27  C  3  S      0.66737     0.27740
             28  C  3  X      1.35527     0.64762
             29  C  3  Y      0.57325     0.40372
             30  C  3  Z      0.02473     0.31646
             31  C  3  S     -1.90477     0.17109
             32  C  3  X      1.80130     0.48330
             33  C  3  Y      0.57430     0.24012
             34  C  3  Z     -2.27393     0.17686
             35  C  3 XX      0.02036     0.29178
             36  C  3 YY      0.04616     0.29503
             37  C  3 ZZ      0.08508     0.33510
             38  C  3 XY      0.05783     0.10123
             39  C  3 XZ      0.03154     0.05586
             40  C  3 YZ      0.04126     0.09769
             41  H  4  S      0.92447     0.84675
             42  H  4  S      1.34770     0.78337
             43  C  5  S      2.00765     1.95527
             44  C  5  S      0.07530     0.04536
             45  C  5  X      0.03888     0.04418
             46  C  5  Y      0.01540     0.01382
             47  C  5  Z      0.00270     0.00301
             48  C  5  S     -0.45449     0.06144
             49  C  5  X     -0.24220     0.09142
             50  C  5  Y     -0.09548     0.02988
             51  C  5  Z     -0.02302     0.01970
             52  C  5  S      1.15665     0.08575
             53  C  5  X      0.28894     0.07839
             54  C  5  Y     -0.03227     0.02753
             55  C  5  Z      0.07842     0.02124
             56  C  5 XX     -0.00688     0.04521
             57  C  5 YY     -0.00340     0.00849
             58  C  5 ZZ     -0.00247     0.00582
             59  C  5 XY      0.00091     0.00738
             60  C  5 XZ     -0.00054     0.00616
             61  C  5 YZ     -0.00012     0.00068
             62  O  6  S      1.98462     1.94426
             63  O  6  S      0.01190     0.03511
             64  O  6  X      0.00012     0.00002
             65  O  6  Y      0.00007     0.00005
             66  O  6  Z     -0.00000     0.00003
             67  O  6  S      0.04279     0.01656
             68  O  6  X      0.01928     0.00297
             69  O  6  Y      0.01452     0.00629
             70  O  6  Z      0.00344     0.00117
             71  O  6  S     -0.04355     0.02714
             72  O  6  X     -0.00603     0.02725
             73  O  6  Y     -0.00336     0.01400
             74  O  6  Z     -0.00536     0.00873
             75  O  6 XX     -0.00138     0.00054
             76  O  6 YY     -0.00093     0.00138
             77  O  6 ZZ     -0.00098     0.00046
             78  O  6 XY      0.00049     0.00159
             79  O  6 XZ      0.00004     0.00036
             80  O  6 YZ      0.00002     0.00088
             81  C  7  S      1.99565     1.98039
             82  C  7  S      0.85010     0.55050
             83  C  7  X      0.95611     0.92585
             84  C  7  Y      0.96809     0.95543
             85  C  7  Z      0.97078     0.90103
             86  C  7  S      0.47528     0.31675
             87  C  7  X      0.28510     0.43086
             88  C  7  Y      0.90054     0.59234
             89  C  7  Z      0.36403     0.43313
             90  C  7  S      1.39574     0.23931
             91  C  7  X      0.23693     0.30779
             92  C  7  Y      2.13955     0.41793
             93  C  7  Z     -2.03521     0.29602
             94  C  7 XX      0.06404     0.25152
             95  C  7 YY      0.02300     0.25894
             96  C  7 ZZ      0.07144     0.24617
             97  C  7 XY      0.02552     0.04875
             98  C  7 XZ      0.01224     0.03487
             99  C  7 YZ      0.04297     0.07988
            100  H  8  S      0.67641     0.61826
            101  H  8  S      0.84473     0.53570
            102  H  9  S      0.62895     0.55766
            103  H  9  S      0.19524     0.29797
            104  S 10  S      1.99982     1.99973
            105  S 10  S      2.06508     1.98916
            106  S 10  X      2.01911     1.99464
            107  S 10  Y      2.02932     1.98950
            108  S 10  Z      2.01723     1.99592
            109  S 10  S      3.69858     1.02415
            110  S 10  X      1.64095     1.33204
            111  S 10  Y      1.08971     0.90601
            112  S 10  Z      1.78010     1.44101
            113  S 10  S     -0.64341     0.15048
            114  S 10  X     -0.29697     0.18397
            115  S 10  Y     -0.22574     0.13230
            116  S 10  Z     -0.25974     0.21870
            117  S 10  S      0.28667     0.09331
            118  S 10  X      0.05168     0.04992
            119  S 10  Y      0.18308     0.06880
            120  S 10  Z      0.10128     0.04908
            121  S 10 XX     -0.49209     0.21440
            122  S 10 YY     -0.45257     0.21616
            123  S 10 ZZ     -0.47576     0.23437
            124  S 10 XY      0.01368     0.01970
            125  S 10 XZ      0.00878     0.00977
            126  S 10 YZ      0.00880     0.01506
            127  H 11  S      0.05649     0.07016
            128  H 11  S      0.08453     0.08287
            129  H 12  S      0.00889     0.00417
            130  H 12  S     -0.03462     0.02095
            131  H 13  S      0.80070     0.73759
            132  H 13  S      1.43599     0.90127
            133  H 14  S      0.11455     0.13127
            134  H 14  S      0.12446     0.13168
            135  H 15  S      0.10486     0.12182
            136  H 15  S      0.12131     0.10835

          ----- MULLIKEN ATOMIC OVERLAP POPULATIONS -----
          (OFF-DIAGONAL ELEMENTS NEED TO BE MULTIPLIED BY 2)

             1           2           3           4           5

    1   64.0152864
    2   -1.5260093   0.7065598
    3 -112.4420281   3.2676491 492.7148901
    4    1.6219839  -0.1275311 -19.7122773   8.9603497
    5    0.1540082   1.6949782  -9.9507743  -3.1071574 132.6026721
    6    0.6822888  -0.2851904  -3.0701957   0.2576275  -6.1151228
    7   65.9326580  -3.4207823-323.5597766  13.3436596 -98.1788998
    8   -0.2289888   0.0030141   4.6552693  -0.0914300   2.9065705
    9   -0.5601057   0.0066624   3.6127698  -0.0375002  -0.2683198
   10    4.9778678  -0.0952738 -38.8529110   1.0514245 -12.7605995
   11    0.0011572  -0.0000031  -0.1385396   0.0009383   0.0073806
   12    0.0830613  -0.0001050   0.0942060   0.0202611  -0.8481640
   13  -11.1819981  -0.0880107  10.7230389   0.1278580  -3.4889529
   14   -0.0072546   0.0000243   0.4482264  -0.0363752   0.0434001
   15   -0.0239065   0.0000242   0.4326157   0.0003383   0.1129426

             6           7           8           9          10

    6    3.5140437
    7    6.9516156 332.8654042
    8   -0.0082778  -8.4204608   3.4524329
    9   -0.0908068  -3.3355157   0.0179666   1.2925043
   10    0.2482530  30.6763044  -0.6371583   0.1461905  30.9533765
   11    0.0002145   0.0660301   0.0048809   0.0043148   0.1455023
   12   -0.0804735   0.3684981  -0.0016080   0.0061142   0.1924043
   13    0.0186301  -2.7537344  -0.1370020   0.0216959   0.0250806
   14   -0.0015261  -0.3352199   0.0038621   0.0023630   0.0209034
   15   -0.0053796  -0.4578800   0.0020642   0.0058560   0.0562326

            11          12          13          14          15

   11    0.0476541
   12    0.0000688   0.1370405
   13   -0.0000006   0.0001031   8.9699779
   14   -0.0001762   0.0002249  -0.0000661   0.1063552
   15    0.0015976   0.0026319   0.0000739  -0.0057313   0.1046892

          TOTAL MULLIKEN AND LOWDIN ATOMIC POPULATIONS
       ATOM         MULL.POP.    CHARGE          LOW.POP.     CHARGE
    1 N            11.498021   -4.498021        10.976301   -3.976301
    2 H             0.136006    0.863994         0.443038    0.556962
    3 C             8.222163   -2.222163        10.395705   -4.395705
    4 H             2.272169   -1.272169         1.630119   -0.630119
    5 C             2.803962    3.196038         2.550708    3.449292
    6 O             2.015701    5.984299         2.088771    5.911229
    7 C             9.741901   -3.741901         9.267447   -3.267447
    8 H             1.521135   -0.521135         1.153957   -0.153957
    9 H             0.824189    0.175811         0.855638    0.144362
   10 S            16.147597   -0.147597        16.328167   -0.328167
   11 H             0.141020    0.858980         0.153034    0.846966
   12 H            -0.025736    1.025736         0.025119    0.974881
   13 H             2.236694   -1.236694         1.638866   -0.638866
   14 H             0.239010    0.760990         0.262950    0.737050
   15 H             0.226169    0.773831         0.230179    0.769821

          -------------------------------
          BOND ORDER AND VALENCE ANALYSIS     BOND ORDER THRESHOLD=0.050
          -------------------------------

                   BOND                       BOND                       BOND
  ATOM PAIR DIST  ORDER      ATOM PAIR DIST  ORDER      ATOM PAIR DIST  ORDER
    1   2  1.015  0.101        1   3  1.458  0.738        1   4  2.080  0.385
    1   5  2.485  1.191        1   6  2.786 -0.119        1   7  2.426  0.147
    1   8  2.615  0.239        1   9  2.713 -0.071        1  10  4.033  0.161
    1  13  1.010 -0.875        1  15  4.471  0.057        2   3  2.120  0.218
    2   5  2.566  0.084        2   7  3.081 -0.180        3   4  1.090 -2.224
    3   5  1.538 -1.330        3   7  1.531 -6.641        3   8  2.155 -0.310
    3   9  2.158  0.245        3  10  2.732 -0.315        3  12  2.282  0.073
    3  13  2.129  0.557        3  14  3.084  0.091        4   5  2.137  0.626
    4   7  2.143  0.663        4  10  2.854  0.094        5   6  1.233 -0.155
    5   7  2.538 -1.617        5   8  3.478  0.853        5  10  3.156 -0.217
    5  13  3.322 -0.121        6   7  3.296  0.322        7   8  1.091  0.107
    7   9  1.092  0.532        7  10  1.815  1.879        7  11  2.611  0.067
    7  12  3.076 -0.146        7  13  3.016  0.403        8  10  2.411  0.181
    8  13  2.876  0.113        9  10  2.418  0.219       10  11  1.339  0.202
   10  14  1.336  0.352       10  15  1.336  0.352

                       TOTAL       BONDED        FREE
      ATOM            VALENCE     VALENCE     VALENCE
    1 N                 1.964       1.964       0.000
    2 H                 0.231       0.231       0.000
    3 C                -8.901      -8.901      -0.000
    4 H                -0.510      -0.510      -0.000
    5 C                -0.636      -0.636       0.000
    6 O                 0.027       0.027      -0.000
    7 C                -4.480      -4.480       0.000
    8 H                 1.076       1.076       0.000
    9 H                 0.924       0.924      -0.000
   10 S                 2.935       2.935      -0.000
   11 H                 0.263       0.263       0.000
   12 H                -0.052      -0.052       0.000
   13 H                 0.097       0.097      -0.000
   14 H                 0.420       0.420       0.000
   15 H                 0.402       0.402       0.000

          ---------------------
          ELECTROSTATIC MOMENTS
          ---------------------

 POINT   1           X           Y           Z (BOHR)    CHARGE
                 2.077650   -0.633794    1.422870        0.00 (A.U.)
         DX          DY          DZ         /D/  (DEBYE)
  -172.471045  -13.662070    8.960066  173.243171
 ...... END OF PROPERTY EVALUATION ......
 STEP CPU TIME =     0.02 TOTAL CPU TIME =          9.4 (      0.2 MIN)
 TOTAL WALL CLOCK TIME=          9.4 SECONDS, CPU UTILIZATION IS    99.89%
               580000  WORDS OF DYNAMIC MEMORY USED
 EXECUTION OF GAMESS TERMINATED NORMALLY Mon Dec 24 10:39:31 2018
 DDI: 263640 bytes (0.3 MB / 0 MWords) used by master data server.

 ----------------------------------------
 CPU timing information for all processes
 ========================================
 0: 7.696 + 1.740 = 9.436
 ----------------------------------------
 ddikick.x: exited gracefully.
----- accounting info -----
Files used on the master node multivac2 were:
-rw-rw-r-- 1 igorchem igorchem      1047 Dec 24 10:39 /home/igorchem/programs/src/cys.F05
-rw-rw-r-- 1 igorchem igorchem 448239840 Dec 24 10:39 /home/igorchem/programs/src/cys.F08
-rw-rw-r-- 1 igorchem igorchem   2846640 Dec 24 10:39 /home/igorchem/programs/src/cys.F10
Mon Dec 24 10:39:34 -03 2018
0.0u 0.0s 0:12.61 0.9% 0+0k 0+16io 0pf+0w
