----- GAMESS execution script 'rungms' -----
This job is running on host multivac2
under operating system Linux at Sat Jan 5 13:36:18 -03 2019
Available scratch disk space (Kbyte units) at beginning of the job is
Filesystem      1K-blocks     Used  Available Use% Mounted on
/dev/sda4      1650447924 65469528 1501117456   5% /
GAMESS temporary binary files will be written to /home/igorchem/programs/src
GAMESS supplementary output files will be written to /home/igorchem/programs/usrsrc
Copying input file metano.inp to your run's scratch directory...

 Distributed Data Interface kickoff program.
 Initiating 1 compute processes on 1 nodes to run the following command:
 /home/igorchem/programs/gamess/gamess.00.x metano 

          ******************************************************
          *         GAMESS VERSION = 11 NOV 2017 (R3)         *
          *             FROM IOWA STATE UNIVERSITY             *
          * M.W.SCHMIDT, K.K.BALDRIDGE, J.A.BOATZ, S.T.ELBERT, *
          *   M.S.GORDON, J.H.JENSEN, S.KOSEKI, N.MATSUNAGA,   *
          *          K.A.NGUYEN, S.J.SU, T.L.WINDUS,           *
          *       TOGETHER WITH M.DUPUIS, J.A.MONTGOMERY       *
          *         J.COMPUT.CHEM.  14, 1347-1363(1993)        *
          **************** 64 BIT LINUX VERSION ****************

  SINCE 1993, STUDENTS AND POSTDOCS WORKING AT IOWA STATE UNIVERSITY
  AND ALSO IN THEIR VARIOUS JOBS AFTER LEAVING ISU HAVE MADE IMPORTANT
  CONTRIBUTIONS TO THE CODE:
     IVANA ADAMOVIC, CHRISTINE AIKENS, YURI ALEXEEV, POOJA ARORA,
     ANDREY ASADCHEV, ROB BELL, PRADIPTA BANDYOPADHYAY, JONATHAN BENTZ,
     BRETT BODE, KURT BRORSEN, CALEB CARLIN, GALINA CHABAN, WEI CHEN,
     CHEOL HO CHOI, PAUL DAY, ALBERT DEFUSCO, NUWAN DESILVA, TIM DUDLEY,
     DMITRI FEDOROV, ALEX FINDLATER, GRAHAM FLETCHER, MARK FREITAG,
     KURT GLAESEMANN, ANASTASIA GUININA,
     DAN KEMP, GRANT MERRILL, NORIYUKI MINEZAWA, JONATHAN MULLIN,
     TAKESHI NAGATA, SEAN NEDD, HEATHER NETZLOFF, BOSILJKA NJEGIC, RYAN OLSON,
     MIKE PAK, BUU PHAM,
     SPENCER PRUITT, LUKE ROSKOP, JIM SHOEMAKER, LYUDMILA SLIPCHENKO,
     TONY SMITH, SAROM SOK LEANG, JIE SONG, TETSUYA TAKETSUGU, SIMON WEBB,
     PENG XU, SOOHAENG YOO, FEDERICO ZAHARIEV

  ADDITIONAL CODE HAS BEEN PROVIDED BY COLLABORATORS IN OTHER GROUPS:
     IOWA STATE UNIVERSITY:
          JOE IVANIC, AARON WEST, LAIMUTIS BYTAUTAS, KLAUS RUEDENBERG
     UNIVERSITY OF TOKYO: KIMIHIKO HIRAO, TAKAHITO NAKAJIMA,
          TAKAO TSUNEDA, MUNEAKI KAMIYA, SUSUMU YANAGISAWA,
          KIYOSHI YAGI, MAHITO CHIBA, SEIKEN TOKURA, NAOAKI KAWAKAMI
     UNIVERSITY OF AARHUS: FRANK JENSEN
     UNIVERSITY OF IOWA: VISVALDAS KAIRYS, HUI LI
     NATIONAL INST. OF STANDARDS AND TECHNOLOGY: WALT STEVENS, DAVID GARMER
     UNIVERSITY OF PISA: BENEDETTA MENNUCCI, JACOPO TOMASI
     UNIVERSITY OF MEMPHIS: HENRY KURTZ, PRAKASHAN KORAMBATH
     UNIVERSITY OF ALBERTA: TOBY ZENG, MARIUSZ KLOBUKOWSKI
     UNIVERSITY OF NEW ENGLAND: MARK SPACKMAN
     MIE UNIVERSITY: HIROAKI UMEDA
     NAT. INST. OF ADVANCED INDUSTRIAL SCIENCE AND TECHNOLOGY: KAZUO KITAURA
     MICHIGAN STATE UNIVERSITY:
          KAROL KOWALSKI, MARTA WLOCH, JEFFREY GOUR, JESSE LUTZ,
          WEI LI, PIOTR PIECUCH
     UNIVERSITY OF SILESIA: MONIKA MUSIAL, STANISLAW KUCHARSKI
     FACULTES UNIVERSITAIRES NOTRE-DAME DE LA PAIX:
          OLIVIER QUINET, BENOIT CHAMPAGNE
     UNIVERSITY OF CALIFORNIA - SANTA BARBARA: BERNARD KIRTMAN
     INSTITUTE FOR MOLECULAR SCIENCE:
          KAZUYA ISHIMURA, MICHIO KATOUDA, AND SHIGERU NAGASE
     UNIVERSITY OF NOTRE DAME: ANNA POMOGAEVA, DAN CHIPMAN
     KYUSHU UNIVERSITY:
          HARUYUKI NAKANO,
          FENG LONG GU, JACEK KORCHOWIEC, MARCIN MAKOWSKI, AND YURIKO AOKI,
          HIROTOSHI MORI AND EISAKU MIYOSHI
     PENNSYLVANIA STATE UNIVERSITY:
          TZVETELIN IORDANOV, CHET SWALINA, JONATHAN SKONE,
          SHARON HAMMES-SCHIFFER
     WASEDA UNIVERSITY:
          MASATO KOBAYASHI, TOMOKO AKAMA, TSUGUKI TOUMA,
          TAKESHI YOSHIKAWA, YASUHIRO IKABATA, JUNJI SEINO,
          YUYA NAKAJIMA, HIROMI NAKAI
     NANJING UNIVERSITY: SHUHUA LI
     UNIVERSITY OF NEBRASKA:
          PEIFENG SU, DEJUN SI, NANDUN THELLAMUREGE, YALI WANG, HUI LI
     UNIVERSITY OF ZURICH: ROBERTO PEVERATI, KIM BALDRIDGE
     N. COPERNICUS UNIVERSITY AND JACKSON STATE UNIVERSITY:
          MARIA BARYSZ
     UNIVERSITY OF COPENHAGEN: Jimmy Kromann, CASPER STEINMANN
     TOKYO INSTITUTE OF TECHNOLOGY: HIROYA NAKATA
     NAGOYA UNIVERSITY: YOSHIO NISHIMOTO, STEPHAN IRLE
     MOSCOW STATE UNIVERSITY: VLADIMIR MIRONOV

 EXECUTION OF GAMESS BEGUN Sat Jan  5 13:36:18 2019

            ECHO OF THE FIRST FEW INPUT CARDS -
 INPUT CARD>! ================================================================              
 INPUT CARD>! This file was generated by Gabedit                                            
 INPUT CARD>! ================================================================              
 INPUT CARD> $SYSTEM MWORDS=20 $END                                                         
 INPUT CARD> $CONTRL RUNTYP=Energy $END                                                     
 INPUT CARD> $CONTRL SCFTYP=UHF $END                                                        
 INPUT CARD> $CONTRL ICHARG=0  MULT=1 $END                                                  
 INPUT CARD> $BASIS GBASIS=N311 NGAUSS=6 $END                                               
 INPUT CARD> $BASIS NDFUNC=1 NFFUNC=1 $END                                                  
 INPUT CARD> $BASIS DIFFSP=.TRUE. DIFFS=.TRUE. $END                                         
 INPUT CARD> $SCF DIRSCF=.TRUE. $END                                                        
 INPUT CARD> $DATA                                                                          
 INPUT CARD>Molecule specification                                                          
 INPUT CARD>C1                                                                              
 INPUT CARD>C  6.000000 0.000001 0.000001 0.000001                                          
 INPUT CARD>H  1.000000 -0.847018 -0.618048 0.297781                                        
 INPUT CARD>H  1.000000 0.612664 -0.544903 -0.718207                                        
 INPUT CARD>H  1.000000 0.598776 0.243097 0.877770                                          
 INPUT CARD>H  1.000000 -0.364422 0.919853 -0.457346                                        
 INPUT CARD> $END                                                                           
   20000000 WORDS OF MEMORY AVAILABLE

     BASIS OPTIONS
     -------------
     GBASIS=N311         IGAUSS=       6      POLAR=POPN311 
     NDFUNC=       1     NFFUNC=       1     DIFFSP=       T
     NPFUNC=       0      DIFFS=       T     BASNAM=        


     RUN TITLE
     ---------
 Molecule specification                                                          

 THE POINT GROUP OF THE MOLECULE IS C1      
 THE ORDER OF THE PRINCIPAL AXIS IS     0

 ATOM      ATOMIC                      COORDINATES (BOHR)
           CHARGE         X                   Y                   Z
 C           6.0     0.0000018897        0.0000018897        0.0000018897
 H           1.0    -1.6006319267       -1.1679413673        0.5627244943
 H           1.0     1.1577670825       -1.0297173599       -1.3572144325
 H           1.0     1.1315225680        0.4593867184        1.6587447802
 H           1.0    -0.6886577239        1.7382701190       -0.8642586216

          INTERNUCLEAR DISTANCES (ANGS.)
          ------------------------------

                1 C          2 H          3 H          4 H          5 H     

   1 C       0.0000000    1.0899994 *  1.0899996 *  1.0900026 *  1.0899991 *
   2 H       1.0899994 *  0.0000000    1.7799588 *  1.7799658 *  1.7799593 *
   3 H       1.0899996 *  1.7799588 *  0.0000000    1.7799661 *  1.7799595 *
   4 H       1.0900026 *  1.7799658 *  1.7799661 *  0.0000000    1.7799674 *
   5 H       1.0899991 *  1.7799593 *  1.7799595 *  1.7799674 *  0.0000000  

  * ... LESS THAN  3.000


     ATOMIC BASIS SET
     ----------------
 THE CONTRACTED PRIMITIVE FUNCTIONS HAVE BEEN UNNORMALIZED
 THE CONTRACTED BASIS FUNCTIONS ARE NOW NORMALIZED TO UNITY

  SHELL TYPE  PRIMITIVE        EXPONENT          CONTRACTION COEFFICIENT(S)

 C         

      1   S       1          4563.2400000    0.001966650249
      1   S       2           682.0240000    0.015230601932
      1   S       3           154.9730000    0.076126909656
      1   S       4            44.4553000    0.260801033080
      1   S       5            13.0290000    0.616462078191
      1   S       6             1.8277300    0.221006028032

      2   L       7            20.9642000    0.114660080729    0.040248692673
      2   L       8             4.8033100    0.919999647749    0.237593956746
      2   L       9             1.4593300   -0.003030682134    0.815853851473

      3   L      10             0.4834560    1.000000000000    1.000000000000

      4   L      11             0.1455850    1.000000000000    1.000000000000

      5   L      12             0.0438000    1.000000000000    1.000000000000

      6   D      13             0.6260000    1.000000000000

      7   F      14             0.8000000    1.000000000000

 H         

      8   S      15            33.8650000    0.025493814541
      8   S      16             5.0947900    0.190373108582
      8   S      17             1.1587900    0.852161486043

      9   S      18             0.3258400    1.000000000000

     10   S      19             0.1027410    1.000000000000

     11   S      20             0.0360000    1.000000000000

 H         

     12   S      21            33.8650000    0.025493814541
     12   S      22             5.0947900    0.190373108582
     12   S      23             1.1587900    0.852161486043

     13   S      24             0.3258400    1.000000000000

     14   S      25             0.1027410    1.000000000000

     15   S      26             0.0360000    1.000000000000

 H         

     16   S      27            33.8650000    0.025493814541
     16   S      28             5.0947900    0.190373108582
     16   S      29             1.1587900    0.852161486043

     17   S      30             0.3258400    1.000000000000

     18   S      31             0.1027410    1.000000000000

     19   S      32             0.0360000    1.000000000000

 H         

     20   S      33            33.8650000    0.025493814541
     20   S      34             5.0947900    0.190373108582
     20   S      35             1.1587900    0.852161486043

     21   S      36             0.3258400    1.000000000000

     22   S      37             0.1027410    1.000000000000

     23   S      38             0.0360000    1.000000000000

 TOTAL NUMBER OF BASIS SET SHELLS             =   23
 NUMBER OF CARTESIAN GAUSSIAN BASIS FUNCTIONS =   49
 NUMBER OF ELECTRONS                          =   10
 CHARGE OF MOLECULE                           =    0
 SPIN MULTIPLICITY                            =    1
 NUMBER OF OCCUPIED ORBITALS (ALPHA)          =    5
 NUMBER OF OCCUPIED ORBITALS (BETA )          =    5
 TOTAL NUMBER OF ATOMS                        =    5
 THE NUCLEAR REPULSION ENERGY IS       13.4353882208

     $CONTRL OPTIONS
     ---------------
 SCFTYP=UHF          RUNTYP=ENERGY       EXETYP=RUN     
 MPLEVL=       0     CITYP =NONE         CCTYP =NONE         VBTYP =NONE    
 DFTTYP=NONE         TDDFT =NONE    
 MULT  =       1     ICHARG=       0     NZVAR =       0     COORD =UNIQUE  
 PP    =NONE         RELWFN=NONE         LOCAL =NONE         NUMGRD=       F
 ISPHER=      -1     NOSYM =       0     MAXIT =      30     UNITS =ANGS    
 PLTORB=       F     MOLPLT=       F     AIMPAC=       F     FRIEND=        
 NPRINT=       7     IREST =       0     GEOM  =INPUT   
 NORMF =       0     NORMP =       0     ITOL  =      20     ICUT  =       9
 INTTYP=BEST         GRDTYP=BEST         QMTTOL= 1.0E-06

     $SYSTEM OPTIONS
     ---------------
  REPLICATED MEMORY=    20000000 WORDS (ON EVERY NODE).
 DISTRIBUTED MEMDDI=           0 MILLION WORDS IN AGGREGATE,
 MEMDDI DISTRIBUTED OVER   1 PROCESSORS IS           0 WORDS/PROCESSOR.
 TOTAL MEMORY REQUESTED ON EACH PROCESSOR=    20000000 WORDS.
 TIMLIM=      525600.00 MINUTES, OR     365.0 DAYS.
 PARALL= F  BALTYP=  DLB     KDIAG=    0  COREFL= F
 MXSEQ2=     300 MXSEQ3=     150  mem10=         0

          ----------------
          PROPERTIES INPUT
          ----------------

     MOMENTS            FIELD           POTENTIAL          DENSITY
 IEMOM =       1   IEFLD =       0   IEPOT =       0   IEDEN =       0
 WHERE =COMASS     WHERE =NUCLEI     WHERE =NUCLEI     WHERE =NUCLEI  
 OUTPUT=BOTH       OUTPUT=BOTH       OUTPUT=BOTH       OUTPUT=BOTH    
 IEMINT=       0   IEFINT=       0                     IEDINT=       0
                                                       MORB  =       0
          EXTRAPOLATION IN EFFECT
          SOSCF IN EFFECT
          DIIS or SOSCF will be reset if energy rises
 ORBITAL PRINTING OPTION: NPREO=     1    49     2     1

     -------------------------------
     INTEGRAL TRANSFORMATION OPTIONS
     -------------------------------
     NWORD  =            0
     CUTOFF = 1.0E-09     MPTRAN =       0
     DIRTRF =       T     AOINTS =DUP     

          ----------------------
          INTEGRAL INPUT OPTIONS
          ----------------------
 NOPK  =       1 NORDER=       0 SCHWRZ=       T

     ------------------------------------------
     THE POINT GROUP IS C1 , NAXIS= 0, ORDER= 1
     ------------------------------------------

     DIMENSIONS OF THE SYMMETRY SUBSPACES ARE
 A   =   49

 ..... DONE SETTING UP THE RUN .....
 STEP CPU TIME =     0.00 TOTAL CPU TIME =          0.0 (      0.0 MIN)
 TOTAL WALL CLOCK TIME=          0.0 SECONDS, CPU UTILIZATION IS     0.00%

          ********************
          1 ELECTRON INTEGRALS
          ********************
 ...... END OF ONE-ELECTRON INTEGRALS ......
 STEP CPU TIME =     0.00 TOTAL CPU TIME =          0.0 (      0.0 MIN)
 TOTAL WALL CLOCK TIME=          0.0 SECONDS, CPU UTILIZATION IS     0.00%

          -------------
          GUESS OPTIONS
          -------------
          GUESS =HUCKEL            NORB  =       0          NORDER=       0
          MIX   =       F          PRTMO =       F          PUNMO =       F
          TOLZ  = 1.0E-08          TOLE  = 1.0E-05
          SYMDEN=       F          PURIFY=       F

 INITIAL GUESS ORBITALS GENERATED BY HUCKEL   ROUTINE.
 HUCKEL GUESS REQUIRES     21450 WORDS.

 SYMMETRIES FOR INITIAL GUESS ORBITALS FOLLOW.  ALPHA SET(S).
     5 ORBITALS ARE OCCUPIED (    1 CORE ORBITALS).
     2=A        3=A        4=A        5=A        6=A        7=A        8=A   
     9=A       10=A       11=A       12=A       13=A       14=A       15=A   

 SYMMETRIES FOR INITIAL GUESS ORBITALS FOLLOW.   BETA SET(S).
     5 ORBITALS ARE OCCUPIED (    1 CORE ORBITALS).
     2=A        3=A        4=A        5=A        6=A        7=A        8=A   
     9=A       10=A       11=A       12=A       13=A       14=A       15=A   
 ...... END OF INITIAL ORBITAL SELECTION ......
 STEP CPU TIME =     0.00 TOTAL CPU TIME =          0.0 (      0.0 MIN)
 TOTAL WALL CLOCK TIME=          0.0 SECONDS, CPU UTILIZATION IS     0.00%

                    ----------------------
                    AO INTEGRAL TECHNOLOGY
                    ----------------------
     S,P,L SHELL ROTATED AXIS INTEGRALS, REPROGRAMMED BY
        KAZUYA ISHIMURA (IMS) AND JOSE SIERRA (SYNSTAR).
     S,P,D,L SHELL ROTATED AXIS INTEGRALS PROGRAMMED BY
        KAZUYA ISHIMURA (INSTITUTE FOR MOLECULAR SCIENCE).
     S,P,D,F,G SHELL TO TOTAL QUARTET ANGULAR MOMENTUM SUM 5,
        ERIC PROGRAM BY GRAHAM FLETCHER (ELORET AND NASA ADVANCED
        SUPERCOMPUTING DIVISION, AMES RESEARCH CENTER).
     S,P,D,F,G,L SHELL GENERAL RYS QUADRATURE PROGRAMMED BY
        MICHEL DUPUIS (PACIFIC NORTHWEST NATIONAL LABORATORY).

          --------------------
          2 ELECTRON INTEGRALS
          --------------------

 DIRECT SCF METHOD SKIPS INTEGRAL STORAGE ON DISK.
 DIRECT TRANSFORMATION SKIPS AO INTEGRAL STORAGE ON DISK.
  ...... END OF TWO-ELECTRON INTEGRALS .....
 STEP CPU TIME =     0.01 TOTAL CPU TIME =          0.0 (      0.0 MIN)
 TOTAL WALL CLOCK TIME=          0.0 SECONDS, CPU UTILIZATION IS    50.00%

          ---------------------------
                  UHF SCF CALCULATION
          ---------------------------

     NUCLEAR ENERGY =        13.4353882208
     MAXIT = 30     NPUNCH=  2     MULT=  1
     EXTRAP=T  DAMP=F  SHIFT=F  RSTRCT=F  DIIS=F  SOSCF=T
     DENSITY MATRIX CONV=  2.00E-05
     SOSCF WILL OPTIMIZE     220 ALPHA AND     220 BETA ROTATION ANGLES.
     SOGTOL= 2.500E-01
     MEMORY REQUIRED FOR UHF/ROHF ITERS=     82526 WORDS.

 DIRECT SCF CALCULATION, SCHWRZ=T   FDIFF=T
 SCHWARZ INEQUALITY OVERHEAD:      1225 INTEGRALS, T=        0.00

                                                                                NONZERO     BLOCKS
 ITER EX      TOTAL ENERGY        E CHANGE  DENSITY CHANGE    ORB. GRAD       INTEGRALS    SKIPPED
   1  0      -40.0818129087   -40.0818129087   0.149580395   0.000000000         615572          0
          ---------------START SECOND ORDER SCF---------------
   2  1      -40.2002441564    -0.1184312477   0.026962311   0.021143307         615572          0
   3  2      -40.2052181973    -0.0049740409   0.022805194   0.011882122         615572          0
   4  3      -40.2059095177    -0.0006913204   0.003883258   0.001675928         615572          0
   5  4      -40.2059230107    -0.0000134930   0.000653509   0.000193130         615551         21
   6  5      -40.2059234144    -0.0000004038   0.000201372   0.000030895         615527         45
   7  6      -40.2059234329    -0.0000000185   0.000023642   0.000009854         615425         93
   8  7      -40.2059234336    -0.0000000007   0.000002854   0.000001692         615349        169
   9  8      -40.2059234333     0.0000000003   0.000001063   0.000000207         614347        562

          -----------------
          DENSITY CONVERGED
          -----------------
     TIME TO FORM FOCK OPERATORS=       0.3 SECONDS (       0.0 SEC/ITER)
     FOCK TIME ON FIRST ITERATION=       0.0, LAST ITERATION=       0.0
     TIME TO SOLVE SCF EQUATIONS=       0.0 SECONDS (       0.0 SEC/ITER)

 FINAL UHF ENERGY IS      -40.2059234333 AFTER   9 ITERATIONS

          --------------------
          SPIN SZ   =    0.000
          S-SQUARED =   -0.000
          --------------------

  ----- ALPHA SET ----- 

          ------------
          EIGENVECTORS
          ------------

                      1          2          3          4          5
                  -11.2093    -0.9432    -0.5451    -0.5451    -0.5451
                     A          A          A          A          A   
    1  C  1  S    0.563394  -0.103256  -0.000000  -0.000000  -0.000000
    2  C  1  S    0.466086  -0.167268  -0.000000  -0.000000  -0.000000
    3  C  1  X    0.000000  -0.000000   0.104696   0.030038   0.159676
    4  C  1  Y    0.000000  -0.000000  -0.047828   0.187237  -0.003863
    5  C  1  Z    0.000000  -0.000001   0.155278   0.037419  -0.108852
    6  C  1  S    0.005074   0.431667   0.000001   0.000001   0.000000
    7  C  1  X   -0.000000  -0.000001   0.156352   0.044859   0.238458
    8  C  1  Y   -0.000000  -0.000000  -0.071426   0.279617  -0.005769
    9  C  1  Z   -0.000000  -0.000001   0.231890   0.055881  -0.162558
   10  C  1  S    0.001682   0.344627   0.000001   0.000001   0.000000
   11  C  1  X    0.000000  -0.000000   0.123235   0.035357   0.187951
   12  C  1  Y    0.000000  -0.000000  -0.056298   0.220392  -0.004547
   13  C  1  Z    0.000000  -0.000000   0.182774   0.044045  -0.128126
   14  C  1  S   -0.000153  -0.015039  -0.000000  -0.000000   0.000000
   15  C  1  X   -0.000000   0.000000  -0.015872  -0.004554  -0.024207
   16  C  1  Y   -0.000000   0.000000   0.007251  -0.028385   0.000586
   17  C  1  Z   -0.000000   0.000000  -0.023540  -0.005673   0.016502
   18  C  1 XX   -0.000827   0.017812   0.005853  -0.016036  -0.010607
   19  C  1 YY   -0.000827   0.017812  -0.025669   0.008942  -0.004039
   20  C  1 ZZ   -0.000827   0.017812   0.019816   0.007094   0.014646
   21  C  1 XY   -0.000000  -0.000000   0.018041  -0.014956  -0.032456
   22  C  1 XZ   -0.000000   0.000000   0.019545   0.035650  -0.008940
   23  C  1 YZ   -0.000000  -0.000000   0.022485  -0.013569   0.023975
   24  C  1 XXX  -0.000053  -0.002633   0.008146   0.004115   0.014601
   25  C  1 YYY   0.000099   0.004917  -0.006648   0.016984  -0.000208
   26  C  1 ZZZ   0.000059   0.002946   0.014571   0.005295  -0.009050
   27  C  1 XXY  -0.000147  -0.007329  -0.000969   0.009953   0.001489
   28  C  1 XXZ   0.000066   0.003309   0.007493   0.002095  -0.006739
   29  C  1 YYX  -0.000139  -0.006927   0.005327  -0.000035   0.008439
   30  C  1 YYZ  -0.000146  -0.007262   0.007529  -0.000867  -0.005354
   31  C  1 ZZX   0.000210   0.010460   0.007052   0.001202   0.007521
   32  C  1 ZZY   0.000015   0.000732  -0.000760   0.008946  -0.002069
   33  C  1 XYZ   0.000262   0.013056  -0.000347  -0.000644   0.000782
   34  H  2  S    0.000308   0.080838  -0.010553  -0.106535  -0.135420
   35  H  2  S   -0.000036   0.075838  -0.014675  -0.148141  -0.188307
   36  H  2  S   -0.000215   0.001674  -0.006726  -0.067896  -0.086305
   37  H  2  S    0.000069   0.005517  -0.003512  -0.035451  -0.045063
   38  H  3  S    0.000308   0.080837  -0.017465  -0.090537   0.145937
   39  H  3  S   -0.000036   0.075838  -0.024286  -0.125895   0.202932
   40  H  3  S   -0.000215   0.001674  -0.011131  -0.057700   0.093008
   41  H  3  S    0.000069   0.005517  -0.005812  -0.030128   0.048563
   42  H  4  S    0.000308   0.080837   0.153515   0.078944  -0.000717
   43  H  4  S   -0.000036   0.075837   0.213470   0.109775  -0.000998
   44  H  4  S   -0.000215   0.001674   0.097837   0.050312  -0.000457
   45  H  4  S    0.000069   0.005517   0.051085   0.026270  -0.000239
   46  H  5  S    0.000308   0.080838  -0.125496   0.118128  -0.009800
   47  H  5  S   -0.000036   0.075838  -0.174508   0.164262  -0.013627
   48  H  5  S   -0.000215   0.001674  -0.079980   0.075284  -0.006245
   49  H  5  S    0.000069   0.005517  -0.041761   0.039309  -0.003261

                      6          7          8          9         10
                    0.0420     0.0784     0.0784     0.0784     0.1532
                     A          A          A          A          A   
    1  C  1  S   -0.019123   0.000000   0.000000   0.000000   0.000000
    2  C  1  S   -0.030318   0.000000   0.000000   0.000000   0.000000
    3  C  1  X   -0.000000  -0.017241   0.000173  -0.025712   0.014892
    4  C  1  Y   -0.000000  -0.000057  -0.030958  -0.000170  -0.001023
    5  C  1  Z   -0.000000  -0.025713  -0.000048   0.017241  -0.009906
    6  C  1  S    0.112756  -0.000000  -0.000000  -0.000000  -0.000000
    7  C  1  X    0.000000  -0.058794   0.000589  -0.087682  -0.006975
    8  C  1  Y    0.000000  -0.000193  -0.105569  -0.000580   0.000479
    9  C  1  Z    0.000000  -0.087684  -0.000162   0.058795   0.004640
   10  C  1  S    0.135579  -0.000000   0.000000  -0.000000   0.000000
   11  C  1  X   -0.000001   0.065071  -0.000652   0.097041   0.085612
   12  C  1  Y   -0.000001   0.000214   0.116838   0.000642  -0.005883
   13  C  1  Z   -0.000001   0.097043   0.000180  -0.065071  -0.056950
   14  C  1  S    6.100302   0.000014   0.000004   0.000000   0.000002
   15  C  1  X   -0.000007  -0.698366   0.007001  -1.041488  -3.092801
   16  C  1  Y   -0.000006  -0.002297  -1.253957  -0.006889   0.212522
   17  C  1  Z   -0.000010  -1.041514  -0.001928   0.698364   2.057388
   18  C  1 XX    0.012027  -0.000383   0.003646   0.002405  -0.008410
   19  C  1 YY    0.012027   0.004931  -0.003307   0.000835  -0.004100
   20  C  1 ZZ    0.012027  -0.004548  -0.000339  -0.003240   0.012511
   21  C  1 XY   -0.000000  -0.003054   0.003960   0.007161  -0.026690
   22  C  1 XZ    0.000000  -0.006082  -0.006517   0.001738  -0.008219
   23  C  1 YZ   -0.000000  -0.003973   0.004222  -0.005156   0.021017
   24  C  1 XXX  -0.000348   0.001624  -0.000877   0.001603   0.004419
   25  C  1 YYY   0.000649   0.001157   0.001730  -0.000061  -0.000142
   26  C  1 ZZZ   0.000389   0.001199  -0.000872  -0.001578  -0.001627
   27  C  1 XXY  -0.000968  -0.000779  -0.000124  -0.000875   0.002470
   28  C  1 XXZ   0.000437   0.000073  -0.000164   0.000684  -0.005097
   29  C  1 YYX  -0.000915   0.000134   0.000785  -0.000242   0.005266
   30  C  1 YYZ  -0.000959   0.000441   0.001337   0.000011  -0.002662
   31  C  1 ZZX   0.001381  -0.000889   0.000377   0.000213   0.003750
   32  C  1 ZZY   0.000097  -0.000768   0.000358   0.000971  -0.003307
   33  C  1 XYZ   0.001724   0.000259   0.000287  -0.000394   0.001307
   34  H  2  S   -0.000493   0.004799   0.013042   0.018573  -0.036753
   35  H  2  S    0.028072  -0.008103  -0.022020  -0.031358   0.068813
   36  H  2  S   -0.387020   0.118399   0.321752   0.458191  -0.910120
   37  H  2  S   -1.559427  -0.970567  -2.637479  -3.755885  -3.944107
   38  H  3  S   -0.000493   0.005455   0.011692  -0.019278   0.041344
   39  H  3  S    0.028072  -0.009209  -0.019741   0.032548  -0.077408
   40  H  3  S   -0.387020   0.134562   0.288449  -0.475575   1.023797
   41  H  3  S   -1.559426  -1.103056  -2.364490   3.898386   4.436737
   42  H  4  S   -0.000493  -0.022621  -0.005131  -0.000209  -0.000067
   43  H  4  S    0.028072   0.038194   0.008663   0.000352   0.000126
   44  H  4  S   -0.387016  -0.558061  -0.126580  -0.005145  -0.001668
   45  H  4  S   -1.559402   4.574539   1.037596   0.042176  -0.007228
   46  H  5  S   -0.000493   0.012367  -0.019604   0.000913  -0.004523
   47  H  5  S    0.028072  -0.020880   0.033099  -0.001542   0.008469
   48  H  5  S   -0.387020   0.305091  -0.483625   0.022529  -0.112009
   49  H  5  S   -1.559424  -2.500922   3.964372  -0.184678  -0.485403

                     11         12         13         14         15
                    0.1532     0.1532     0.1889     0.3090     0.3090
                     A          A          A          A          A   
    1  C  1  S    0.000000   0.000000   0.037524  -0.000001  -0.000000
    2  C  1  S    0.000000   0.000000   0.066255  -0.000001  -0.000000
    3  C  1  X    0.001889   0.009778  -0.000000   0.086712   0.137883
    4  C  1  Y    0.017787  -0.001877   0.000000   0.043145  -0.035274
    5  C  1  Z    0.001002   0.014893  -0.000000   0.131163  -0.079551
    6  C  1  S   -0.000001  -0.000001  -0.148104   0.000001   0.000000
    7  C  1  X   -0.000885  -0.004580   0.000001   0.037495   0.059621
    8  C  1  Y   -0.008331   0.000879   0.000001   0.018656  -0.015253
    9  C  1  Z   -0.000469  -0.006975   0.000001   0.056716  -0.034398
   10  C  1  S    0.000001   0.000002  -0.586276   0.000032   0.000000
   11  C  1  X    0.010858   0.056213  -0.000003   0.836582   1.330268
   12  C  1  Y    0.102255  -0.010792  -0.000002   0.416254  -0.340316
   13  C  1  Z    0.005760   0.085618  -0.000004   1.265443  -0.767494
   14  C  1  S    0.000036   0.000083  14.606350   0.000115   0.000004
   15  C  1  X   -0.392265  -2.030808  -0.000008  -0.598429  -0.951581
   16  C  1  Y   -3.694087   0.389882  -0.000009  -0.297760   0.243438
   17  C  1  Z   -0.208091  -3.093117  -0.000011  -0.905206   0.549012
   18  C  1 XX   -0.014438   0.003076   0.000823   0.000474   0.001238
   19  C  1 YY    0.010471  -0.020329   0.000823   0.003193   0.001536
   20  C  1 ZZ    0.003967   0.017252   0.000823  -0.003669  -0.002774
   21  C  1 XY   -0.015676   0.013683  -0.000000  -0.001595   0.004842
   22  C  1 XZ    0.027162   0.020811  -0.000000  -0.006240   0.002252
   23  C  1 YZ   -0.013350   0.016845  -0.000000  -0.002219  -0.005107
   24  C  1 XXX   0.003134   0.000986   0.002399   0.019275   0.030863
   25  C  1 YYY   0.005745  -0.004303  -0.004480   0.008818  -0.007988
   26  C  1 ZZZ   0.003313   0.005566  -0.002685   0.030067  -0.017644
   27  C  1 XXY   0.006018   0.001850   0.006677   0.005202  -0.002969
   28  C  1 XXZ   0.000649   0.004078  -0.003015   0.013781  -0.008970
   29  C  1 YYX  -0.001928   0.002686   0.006312   0.008838   0.014848
   30  C  1 YYZ  -0.004088   0.003401   0.006616   0.013142  -0.008152
   31  C  1 ZZX  -0.000381   0.005804  -0.009530   0.009769   0.014453
   32  C  1 ZZY   0.004125   0.002040  -0.000667   0.005093  -0.004403
   33  C  1 XYZ  -0.000918  -0.000736  -0.011896  -0.000278   0.000365
   34  H  2  S   -0.030264  -0.006614  -0.013588   0.012874   0.025026
   35  H  2  S    0.056663   0.012386   0.179633   0.013105   0.025471
   36  H  2  S   -0.749420  -0.163805  -1.386824   1.006718   1.956934
   37  H  2  S   -3.247681  -0.709834  -2.650502  -1.186492  -2.306303
   38  H  3  S   -0.022780  -0.009065  -0.013588   0.013619  -0.033915
   39  H  3  S    0.042652   0.016974   0.179633   0.013863  -0.034518
   40  H  3  S   -0.564116  -0.224486  -1.386824   1.064974  -2.652030
   41  H  3  S   -2.444643  -0.972803  -2.650502  -1.255147   3.125489
   42  H  4  S    0.015592   0.045468  -0.013588  -0.037439  -0.000877
   43  H  4  S   -0.029193  -0.085128   0.179634  -0.038104  -0.000892
   44  H  4  S    0.386106   1.125916  -1.386818  -2.927573  -0.068570
   45  H  4  S    1.673232   4.879263  -2.650488   3.450167   0.080810
   46  H  5  S    0.037452  -0.029788  -0.013588   0.010943   0.009766
   47  H  5  S   -0.070120   0.055774   0.179633   0.011140   0.009940
   48  H  5  S    0.927414  -0.737658  -1.386823   0.855767   0.763663
   49  H  5  S    4.019066  -3.196688  -2.650499  -1.008587  -0.899998

                     16         17         18         19         20
                    0.3090     0.3768     0.5537     0.5537     0.5537
                     A          A          A          A          A   
    1  C  1  S   -0.000000  -0.048861   0.000000  -0.000000  -0.000000
    2  C  1  S   -0.000000  -0.098393  -0.000000  -0.000000   0.000000
    3  C  1  X    0.007326  -0.000001  -0.007078   0.000402   0.004719
    4  C  1  Y    0.153227  -0.000001  -0.000295  -0.008507   0.000282
    5  C  1  Z   -0.055245  -0.000001   0.004727   0.000071   0.007084
    6  C  1  S    0.000000  -0.006802  -0.000000  -0.000000   0.000001
    7  C  1  X    0.003168   0.000000   0.062572  -0.003556  -0.041714
    8  C  1  Y    0.066256  -0.000000   0.002610   0.075199  -0.002496
    9  C  1  Z   -0.023888   0.000000  -0.041784  -0.000628  -0.062623
   10  C  1  S    0.000004   4.408105   0.000001   0.000008  -0.000029
   11  C  1  X    0.070676  -0.000016  -1.251580   0.071138   0.834377
   12  C  1  Y    1.478308  -0.000011  -0.052215  -1.504154   0.049915
   13  C  1  Z   -0.532999  -0.000022   0.835770   0.012557   1.252613
   14  C  1  S    0.000004  14.954585   0.000003   0.000030  -0.000076
   15  C  1  X   -0.050558  -0.000023   1.507377  -0.085677  -1.004908
   16  C  1  Y   -1.057478  -0.000019   0.062887   1.811572  -0.060118
   17  C  1  Z    0.381268  -0.000033  -1.006584  -0.015123  -1.508624
   18  C  1 XX    0.003352  -0.064404  -0.006356  -0.009081  -0.000698
   19  C  1 YY   -0.003427  -0.064404  -0.001895   0.008822   0.012216
   20  C  1 ZZ    0.000074  -0.064404   0.008251   0.000258  -0.011517
   21  C  1 XY    0.005057  -0.000000  -0.018408  -0.009736  -0.007469
   22  C  1 XZ   -0.003427  -0.000000  -0.003889   0.016136  -0.015929
   23  C  1 YZ    0.003111  -0.000000   0.012761  -0.011380  -0.009686
   24  C  1 XXX   0.002459  -0.001366  -0.013447  -0.002967   0.006695
   25  C  1 YYY   0.034935   0.002550  -0.000873  -0.017025  -0.004309
   26  C  1 ZZZ  -0.011735   0.001528   0.006675  -0.003441   0.015172
   27  C  1 XXY   0.016225  -0.003802  -0.004092  -0.011127   0.003652
   28  C  1 XXZ  -0.005801   0.001716   0.008875  -0.000693   0.008726
   29  C  1 YYX   0.000222  -0.003594  -0.009920   0.003833   0.005326
   30  C  1 YYZ  -0.006785  -0.003767   0.006222   0.005671   0.006968
   31  C  1 ZZX   0.000236   0.005426  -0.008059   0.002194   0.009704
   32  C  1 ZZY   0.015481   0.000380   0.003761  -0.009320   0.003565
   33  C  1 XYZ  -0.000095   0.006773  -0.001625   0.001224  -0.001136
   34  H  2  S    0.024748  -0.041359  -0.056403  -0.036717   0.015331
   35  H  2  S    0.025188   0.029754  -1.282753  -0.835036   0.348670
   36  H  2  S    1.935176  -3.576203   1.291128   0.840480  -0.350925
   37  H  2  S   -2.280661  -2.027185   1.271470   0.827689  -0.345595
   38  H  3  S    0.008293  -0.041359   0.056292  -0.035920   0.017478
   39  H  3  S    0.008441   0.029754   1.280211  -0.816921   0.397506
   40  H  3  S    0.648502  -3.576200  -1.288571   0.822247  -0.400079
   41  H  3  S   -0.764280  -2.027184  -1.268950   0.809733  -0.394002
   42  H  4  S    0.001446  -0.041359   0.001198   0.013122  -0.067756
   43  H  4  S    0.001472   0.029751   0.027253   0.298427  -1.540951
   44  H  4  S    0.113071  -3.576120  -0.027432  -0.300384   1.551027
   45  H  4  S   -0.133256  -2.027151  -0.027013  -0.295803   1.527410
   46  H  5  S   -0.034487  -0.041359  -0.001087   0.059516   0.034946
   47  H  5  S   -0.035100   0.029753  -0.024710   1.353532   0.794769
   48  H  5  S   -2.696758  -3.576192   0.024871  -1.362374  -0.799931
   49  H  5  S    3.178196  -2.027178   0.024492  -1.341635  -0.787777

                     21         22         23         24         25
                    0.8609     0.8794     0.8794     0.8794     0.9612
                     A          A          A          A          A   
    1  C  1  S    0.011617   0.000000   0.000000  -0.000000   0.112166
    2  C  1  S    0.032424  -0.000001  -0.000000  -0.000000   0.135931
    3  C  1  X   -0.000012  -0.132728  -0.216988   0.023351   0.000002
    4  C  1  Y   -0.000006  -0.079039   0.022319  -0.241868   0.000001
    5  C  1  Z   -0.000016  -0.203425   0.132905   0.078740   0.000002
    6  C  1  S    0.386746  -0.000051  -0.000002   0.000000  -2.011238
    7  C  1  X   -0.000051  -0.597544  -0.976882   0.105125   0.000007
    8  C  1  Y   -0.000029  -0.355835   0.100479  -1.088896   0.000003
    9  C  1  Z   -0.000071  -0.915822   0.598343   0.354491   0.000010
   10  C  1  S   -2.859348   0.000291   0.000014  -0.000002   6.374831
   11  C  1  X    0.000106   1.067545   1.745252  -0.187812  -0.000017
   12  C  1  Y    0.000061   0.635719  -0.179512   1.945370  -0.000010
   13  C  1  Z    0.000147   1.636168  -1.068971  -0.633316  -0.000023
   14  C  1  S    8.538331  -0.000708  -0.000030  -0.000011   3.893034
   15  C  1  X   -0.000064  -0.533634  -0.872402   0.093881  -0.000007
   16  C  1  Y   -0.000040  -0.317778   0.089733  -0.972435  -0.000007
   17  C  1  Z   -0.000089  -0.817872   0.534349   0.316576  -0.000010
   18  C  1 XX    0.061684  -0.002255  -0.006244  -0.011680  -0.388393
   19  C  1 YY    0.061684  -0.011237  -0.004104   0.013946  -0.388392
   20  C  1 ZZ    0.061686   0.013466   0.010346  -0.002266  -0.388393
   21  C  1 XY    0.000000   0.005392  -0.020317  -0.016557  -0.000000
   22  C  1 XZ    0.000002   0.023928  -0.006393   0.012680  -0.000000
   23  C  1 YZ    0.000001   0.007438   0.017412  -0.014368  -0.000000
   24  C  1 XXX   0.004490  -0.006731  -0.010899   0.001495  -0.000686
   25  C  1 YYY  -0.008385  -0.004299   0.001119  -0.011931   0.001281
   26  C  1 ZZZ  -0.005025  -0.009972   0.006799   0.004192   0.000768
   27  C  1 XXY   0.012498  -0.001429   0.000769  -0.005157  -0.001910
   28  C  1 XXZ  -0.005643  -0.004333   0.002598   0.001711   0.000862
   29  C  1 YYX   0.011813  -0.002948  -0.004516   0.000274  -0.001805
   30  C  1 YYZ   0.012383  -0.004604   0.002860   0.001302  -0.001892
   31  C  1 ZZX  -0.017838  -0.002582  -0.004664   0.000283   0.002726
   32  C  1 ZZY  -0.001249  -0.001474   0.000178  -0.005368   0.000191
   33  C  1 XYZ  -0.022266  -0.000110   0.000135  -0.000050   0.003402
   34  H  2  S    0.057602  -0.022198  -0.046191  -0.033756   0.044071
   35  H  2  S    1.461104  -0.243779  -0.507123  -0.370597   0.176415
   36  H  2  S   -1.526618   0.835274   1.738196   1.270254  -2.215498
   37  H  2  S   -1.265363  -0.848261  -1.765679  -1.290341  -0.295785
   38  H  3  S    0.057602  -0.023775   0.053018  -0.019737   0.044071
   39  H  3  S    1.461106  -0.261092   0.582077  -0.216686   0.176414
   40  H  3  S   -1.526627   0.894618  -1.995135   0.742713  -2.215495
   41  H  3  S   -1.265352  -0.908544   2.026701  -0.754455  -0.295785
   42  H  4  S    0.057609   0.061101   0.001728  -0.005356   0.044070
   43  H  4  S    1.461162   0.670742   0.018967  -0.058801   0.176403
   44  H  4  S   -1.526884  -2.299335  -0.065026   0.201544  -2.215443
   45  H  4  S   -1.265040   2.335921   0.066064  -0.204725  -0.295782
   46  H  5  S    0.057602  -0.015146  -0.008556   0.058848   0.044071
   47  H  5  S    1.461108  -0.166355  -0.093943   0.646081   0.176415
   48  H  5  S   -1.526646   0.569897   0.321984  -2.214500  -2.215494
   49  H  5  S   -1.265326  -0.578684  -0.327067   2.249527  -0.295780

                     26         27         28         29         30
                    1.5207     1.5207     1.8696     1.8696     1.8696
                     A          A          A          A          A   
    1  C  1  S    0.000000  -0.000000  -0.000000  -0.000000   0.000000
    2  C  1  S    0.000000  -0.000000  -0.000000  -0.000000   0.000000
    3  C  1  X   -0.000000  -0.000000  -0.011057  -0.034029   0.013911
    4  C  1  Y   -0.000000   0.000000  -0.031607   0.001380  -0.021745
    5  C  1  Z    0.000000  -0.000000  -0.018775   0.017716   0.028415
    6  C  1  S   -0.000000   0.000001  -0.000000   0.000000  -0.000000
    7  C  1  X   -0.000000  -0.000000  -0.009741  -0.029982   0.012256
    8  C  1  Y   -0.000000   0.000000  -0.027848   0.001216  -0.019160
    9  C  1  Z    0.000000  -0.000000  -0.016541   0.015610   0.025035
   10  C  1  S    0.000001  -0.000003   0.000011   0.000002  -0.000009
   11  C  1  X   -0.000000  -0.000000  -0.256701  -0.790044   0.322977
   12  C  1  Y    0.000000  -0.000000  -0.733813   0.032045  -0.504846
   13  C  1  Z    0.000000  -0.000000  -0.435895   0.411313   0.659698
   14  C  1  S    0.000000  -0.000001   0.000018   0.000001  -0.000006
   15  C  1  X    0.000000   0.000000   0.206292   0.634901  -0.259553
   16  C  1  Y    0.000000  -0.000000   0.589712  -0.025752   0.405708
   17  C  1  Z   -0.000000   0.000000   0.350297  -0.330543  -0.530151
   18  C  1 XX   -0.716421  -0.527465   0.318677   0.257776   0.312037
   19  C  1 YY   -0.056399   0.779061   0.006767   0.177514  -0.681630
   20  C  1 ZZ    0.772820  -0.251595  -0.325446  -0.435290   0.369595
   21  C  1 XY    0.256109   0.327186   0.154709   0.776513   0.652696
   22  C  1 XZ   -0.315986   0.074435  -1.041498   0.155828   0.171783
   23  C  1 YZ   -0.303481   0.505079   0.160102  -0.673609   0.592776
   24  C  1 XXX   0.000000   0.000000  -0.031290  -0.076230   0.017578
   25  C  1 YYY   0.000000  -0.000000  -0.064715   0.004127  -0.065688
   26  C  1 ZZZ  -0.000001   0.000000  -0.056985   0.032768   0.061486
   27  C  1 XXY  -0.000000   0.000000  -0.050859  -0.012475  -0.022569
   28  C  1 XXZ   0.000000   0.000000  -0.027246   0.034592   0.037541
   29  C  1 YYX  -0.000000  -0.000000  -0.004042  -0.050199   0.023586
   30  C  1 YYZ   0.000000  -0.000001  -0.005155   0.024163   0.044712
   31  C  1 ZZX  -0.000000  -0.000000  -0.018083  -0.044824   0.033486
   32  C  1 ZZY   0.000000  -0.000000  -0.045571   0.014941  -0.015376
   33  C  1 XYZ  -0.000000  -0.000000   0.005959  -0.005656  -0.001414
   34  H  2  S    0.000000  -0.000000   0.198429   0.283023   0.086133
   35  H  2  S   -0.000001   0.000001  -1.039283  -1.482342  -0.451122
   36  H  2  S    0.000000   0.000000   0.543080   0.774610   0.235743
   37  H  2  S   -0.000000   0.000000   0.289231   0.412532   0.125546
   38  H  3  S   -0.000000  -0.000000   0.203741  -0.292206  -0.000303
   39  H  3  S    0.000000   0.000001  -1.067105   1.530438   0.001591
   40  H  3  S   -0.000001   0.000000   0.557618  -0.799746  -0.000827
   41  H  3  S   -0.000000   0.000000   0.296973  -0.425918  -0.000443
   42  H  4  S   -0.000000  -0.000000  -0.262064  -0.038218   0.238236
   43  H  4  S   -0.000000   0.000001   1.372572   0.200170  -1.247769
   44  H  4  S   -0.000000   0.000001  -0.717252  -0.104601   0.652032
   45  H  4  S   -0.000000   0.000000  -0.381990  -0.055708   0.347259
   46  H  5  S   -0.000000   0.000000  -0.140109   0.047401  -0.324064
   47  H  5  S   -0.000000   0.000000   0.733823  -0.248267   1.697302
   48  H  5  S   -0.000000   0.000001  -0.383473   0.129733  -0.886934
   49  H  5  S   -0.000000   0.000000  -0.204221   0.069093  -0.472360

                     31         32         33         34         35
                    2.5145     2.6535     2.6535     2.6535     3.0316
                     A          A          A          A          A   
    1  C  1  S   -0.041867   0.000000   0.000000   0.000000  -0.000000
    2  C  1  S   -0.128668   0.000001   0.000000   0.000000   0.000000
    3  C  1  X    0.000001   0.188196   0.294927   0.033158  -0.000001
    4  C  1  Y    0.000000   0.081926  -0.089362   0.329850   0.000003
    5  C  1  Z    0.000002   0.285255  -0.168911  -0.116611  -0.000001
    6  C  1  S    0.201117  -0.000002  -0.000000  -0.000000  -0.000000
    7  C  1  X   -0.000000  -0.098124  -0.153773  -0.017288   0.000000
    8  C  1  Y    0.000000  -0.042716   0.046593  -0.171982  -0.000001
    9  C  1  Z    0.000000  -0.148731   0.088069   0.060800   0.000000
   10  C  1  S   -0.284065   0.000004   0.000000  -0.000000  -0.000000
   11  C  1  X    0.000006   0.185861   0.291269   0.032747  -0.000001
   12  C  1  Y    0.000004   0.080910  -0.088254   0.325759   0.000003
   13  C  1  Z    0.000008   0.281716  -0.166816  -0.115164  -0.000001
   14  C  1  S    5.812860  -0.000053  -0.000001  -0.000004  -0.000000
   15  C  1  X   -0.000011   0.030667   0.048057   0.005403   0.000000
   16  C  1  Y   -0.000009   0.013350  -0.014561   0.053747  -0.000001
   17  C  1  Z   -0.000015   0.046484  -0.027523  -0.019002   0.000000
   18  C  1 XX   -0.293474  -0.017098  -0.050317  -0.155355  -0.000000
   19  C  1 YY   -0.293475  -0.150789  -0.074793   0.148576   0.000001
   20  C  1 ZZ   -0.293472   0.167893   0.125110   0.006779  -0.000000
   21  C  1 XY    0.000000   0.078541  -0.212065  -0.236278  -0.000000
   22  C  1 XZ    0.000003   0.278430  -0.110655   0.160914   0.000000
   23  C  1 YZ    0.000001   0.106997   0.237107  -0.129345  -0.000001
   24  C  1 XXX   0.061172   0.109584   0.095728  -0.269904   0.237095
   25  C  1 YYY  -0.114220   0.319086   0.011976  -0.113012  -0.576551
   26  C  1 ZZZ  -0.068446  -0.154118  -0.094261  -0.260065  -0.007638
   27  C  1 XXY   0.170254  -0.284069  -0.190461  -0.278744   0.198711
   28  C  1 XXZ  -0.076866  -0.187376   0.321920   0.084165  -0.211915
   29  C  1 YYX   0.160929  -0.037925  -0.327207   0.164150   0.169361
   30  C  1 YYZ   0.168694   0.019275   0.026520   0.417993   0.222164
   31  C  1 ZZX  -0.243001  -0.356417  -0.188807   0.154389  -0.487456
   32  C  1 ZZY  -0.017012  -0.251695   0.291830  -0.003109   0.574809
   33  C  1 XYZ  -0.303313   0.093547  -0.127207   0.030898   0.597962
   34  H  2  S   -0.590413   0.294457   0.576399   0.627703   0.000001
   35  H  2  S    1.541705  -0.407831  -0.798315  -0.869373  -0.000001
   36  H  2  S   -1.538965   0.403187   0.789225   0.859474   0.000001
   37  H  2  S   -0.780634  -0.140854  -0.275743  -0.300286  -0.000001
   38  H  3  S   -0.590413   0.315918  -0.825483   0.178117   0.000001
   39  H  3  S    1.541706  -0.437555   1.143298  -0.246693  -0.000001
   40  H  3  S   -1.538966   0.432572  -1.130280   0.243884   0.000002
   41  H  3  S   -0.780632  -0.151121   0.394903  -0.085208  -0.000001
   42  H  4  S   -0.590421  -0.901486  -0.015549   0.005454   0.000001
   43  H  4  S    1.541709   1.248561   0.021536  -0.007555  -0.000001
   44  H  4  S   -1.538974  -1.234340  -0.021291   0.007469   0.000001
   45  H  4  S   -0.780595   0.431266   0.007439  -0.002608  -0.000001
   46  H  5  S   -0.590412   0.291129   0.264634  -0.811273  -0.000002
   47  H  5  S    1.541703  -0.403223  -0.366520   1.123617   0.000002
   48  H  5  S   -1.538965   0.398631   0.362346  -1.110823  -0.000004
   49  H  5  S   -0.780628  -0.139261  -0.126598   0.388105   0.000003

                     36         37         38         39         40
                    3.0316     3.0316     3.1302     3.1302     3.1302
                     A          A          A          A          A   
    1  C  1  S    0.000000  -0.000000  -0.000000   0.000000  -0.000000
    2  C  1  S    0.000000  -0.000000  -0.000001   0.000000  -0.000000
    3  C  1  X    0.000002   0.000000   0.001750  -0.821325  -0.069166
    4  C  1  Y    0.000000   0.000000   0.026088  -0.069077   0.820920
    5  C  1  Z   -0.000002  -0.000000   0.823817   0.003936  -0.025850
    6  C  1  S   -0.000000   0.000000   0.000003  -0.000002   0.000001
    7  C  1  X   -0.000001  -0.000000  -0.000365   0.171416   0.014435
    8  C  1  Y   -0.000000  -0.000000  -0.005445   0.014417  -0.171332
    9  C  1  Z    0.000000   0.000000  -0.171936  -0.000822   0.005395
   10  C  1  S   -0.000000   0.000000  -0.000002   0.000002  -0.000001
   11  C  1  X    0.000002   0.000001   0.001871  -0.877410  -0.073890
   12  C  1  Y    0.000000   0.000000   0.027870  -0.073794   0.876977
   13  C  1  Z   -0.000002  -0.000000   0.880074   0.004204  -0.027615
   14  C  1  S   -0.000000   0.000000  -0.000019   0.000014  -0.000007
   15  C  1  X   -0.000001  -0.000000  -0.000986   0.462477   0.038947
   16  C  1  Y   -0.000000   0.000000  -0.014690   0.038896  -0.462249
   17  C  1  Z    0.000001   0.000000  -0.463882  -0.002216   0.014556
   18  C  1 XX   -0.000000  -0.000000   0.003991   0.005403  -0.009250
   19  C  1 YY   -0.000000  -0.000000  -0.009195   0.008220   0.009603
   20  C  1 ZZ    0.000000   0.000000   0.005200  -0.013621  -0.000355
   21  C  1 XY   -0.000001  -0.000000   0.016631   0.011929  -0.009978
   22  C  1 XZ   -0.000000  -0.000000   0.016261  -0.006304   0.016014
   23  C  1 YZ    0.000000   0.000000   0.000791  -0.016013  -0.012330
   24  C  1 XXX   0.193430  -0.353340  -0.147228   0.980153   0.382259
   25  C  1 YYY  -0.023355   0.085833  -0.365664   0.266252  -0.805565
   26  C  1 ZZZ  -0.609425  -0.007774  -0.873933  -0.245509   0.306820
   27  C  1 XXY   0.592425  -0.185864   0.052972  -0.387123  -0.100862
   28  C  1 XXZ   0.642890   0.572524  -0.000556   0.201941   0.071488
   29  C  1 YYX  -0.159548   0.795230  -0.092483   0.088019  -0.257029
   30  C  1 YYZ   0.174741  -0.562093  -0.248219   0.120654  -0.438533
   31  C  1 ZZX  -0.099968  -0.321176   0.286989   0.013945  -0.136497
   32  C  1 ZZY  -0.561092   0.070707   0.392609   0.149082  -0.234640
   33  C  1 XYZ   0.269939   0.034757  -0.150702  -0.055012  -0.097173
   34  H  2  S    0.000001   0.000000  -0.024381  -0.079184   0.048876
   35  H  2  S   -0.000002  -0.000000   0.053355   0.173283  -0.106958
   36  H  2  S    0.000002   0.000001  -0.166279  -0.540037   0.333337
   37  H  2  S   -0.000002  -0.000001   0.221179   0.718309  -0.443376
   38  H  3  S   -0.000001  -0.000000   0.064759   0.050150   0.050445
   39  H  3  S    0.000002   0.000000  -0.141715  -0.109747  -0.110391
   40  H  3  S   -0.000003  -0.000001   0.441656   0.342025   0.344036
   41  H  3  S    0.000002   0.000001  -0.587448  -0.454941  -0.457607
   42  H  4  S    0.000000   0.000000  -0.078215   0.054084  -0.014503
   43  H  4  S   -0.000000  -0.000000   0.171161  -0.118353   0.031739
   44  H  4  S    0.000000   0.000000  -0.533431   0.368851  -0.098913
   45  H  4  S   -0.000000  -0.000000   0.709539  -0.490625   0.131570
   46  H  5  S   -0.000000  -0.000000   0.037840  -0.025051  -0.084817
   47  H  5  S    0.000000   0.000000  -0.082808   0.054822   0.185610
   48  H  5  S   -0.000000  -0.000000   0.258073  -0.170852  -0.578453
   49  H  5  S    0.000000  -0.000000  -0.343260   0.227249   0.769416

                     41         42         43         44         45
                    3.3808     3.9787     3.9787     3.9787     4.6266
                     A          A          A          A          A   
    1  C  1  S   -0.158491   0.000000   0.000000  -0.000000   0.054951
    2  C  1  S   -0.612494   0.000001   0.000001  -0.000000   0.224128
    3  C  1  X    0.000000   0.207715  -0.172849  -0.270164   0.000001
    4  C  1  Y    0.000000   0.066829   0.338134  -0.164955   0.000000
    5  C  1  Z    0.000001   0.313691   0.042418   0.214036   0.000001
    6  C  1  S    1.623875  -0.000000  -0.000002   0.000001  -1.033741
    7  C  1  X   -0.000001   0.175782  -0.146278  -0.228634   0.000001
    8  C  1  Y   -0.000001   0.056555   0.286154  -0.139598  -0.000000
    9  C  1  Z   -0.000001   0.265465   0.035898   0.181133   0.000001
   10  C  1  S    3.839774  -0.000010  -0.000003   0.000001  -0.511334
   11  C  1  X   -0.000004   0.121735  -0.101300  -0.158331   0.000001
   12  C  1  Y   -0.000003   0.039166   0.198166  -0.096673   0.000001
   13  C  1  Z   -0.000005   0.183843   0.024859   0.125437   0.000002
   14  C  1  S    0.602201  -0.000008   0.000003  -0.000000   1.838938
   15  C  1  X   -0.000004  -0.125459   0.104399   0.163176  -0.000003
   16  C  1  Y   -0.000003  -0.040364  -0.204229   0.099631  -0.000002
   17  C  1  Z   -0.000005  -0.189467  -0.025620  -0.129276  -0.000004
   18  C  1 XX   -1.522187   0.013307   0.123763  -0.205770   0.634622
   19  C  1 YY   -1.522187   0.234743  -0.223562   0.055237   0.634624
   20  C  1 ZZ   -1.522187  -0.248042   0.099803   0.150530   0.634622
   21  C  1 XY   -0.000000  -0.129216   0.049311  -0.458633  -0.000001
   22  C  1 XZ   -0.000000  -0.390879  -0.305747   0.043046   0.000000
   23  C  1 YZ   -0.000000  -0.173183   0.362314   0.140683  -0.000002
   24  C  1 XXX  -0.052185   0.010149  -0.251181   0.406358  -0.158335
   25  C  1 YYY   0.097448   0.450006  -0.425130   0.239822   0.295651
   26  C  1 ZZZ   0.058393  -0.505297  -0.260891   0.191923   0.177158
   27  C  1 XXY  -0.145251  -0.452578  -0.293230   0.590929  -0.440687
   28  C  1 XXZ   0.065575  -0.419779  -0.266500  -0.547048   0.198952
   29  C  1 YYX  -0.137292  -0.167169   0.598554   0.328278  -0.416546
   30  C  1 YYZ  -0.143916  -0.133660   0.450012  -0.550631  -0.436645
   31  C  1 ZZX   0.207307  -0.661816   0.416953   0.187054   0.628967
   32  C  1 ZZY   0.014511  -0.413499  -0.463726  -0.265159   0.044029
   33  C  1 XYZ   0.258765   0.140443   0.175837   0.114848   0.785089
   34  H  2  S   -0.014321  -0.364093  -0.146854   1.160017  -0.779931
   35  H  2  S   -0.014260   0.241745   0.097506  -0.770209   0.599911
   36  H  2  S   -0.834296  -0.116349  -0.046930   0.370707  -0.421993
   37  H  2  S    0.033940  -0.044299  -0.017868   0.141136  -0.259772
   38  H  3  S   -0.014321  -0.395318  -0.942708  -0.674384  -0.779931
   39  H  3  S   -0.014260   0.262477   0.625924   0.447767   0.599911
   40  H  3  S   -0.834296  -0.126328  -0.301262  -0.215514  -0.421993
   41  H  3  S    0.033940  -0.048098  -0.114697  -0.082050  -0.259772
   42  H  4  S   -0.014319   1.223053   0.046852  -0.041146  -0.779929
   43  H  4  S   -0.014259  -0.812069  -0.031108   0.027319   0.599912
   44  H  4  S   -0.834286   0.390855   0.014973  -0.013149  -0.421995
   45  H  4  S    0.033950   0.148813   0.005700  -0.005006  -0.259762
   46  H  5  S   -0.014321  -0.463641   1.042705  -0.444485  -0.779936
   47  H  5  S   -0.014259   0.307841  -0.692318   0.295122   0.599914
   48  H  5  S   -0.834296  -0.148161   0.333217  -0.142044  -0.421995
   49  H  5  S    0.033942  -0.056413   0.126864  -0.054080  -0.259771

                     46         47         48         49
                    9.5005     9.5005     9.5005    27.6959
                     A          A          A          A   
    1  C  1  S   -0.000000  -0.000000  -0.000000  -2.115163
    2  C  1  S   -0.000000  -0.000000  -0.000000   2.569535
    3  C  1  X   -3.132546  -0.739399  -2.017990   0.000000
    4  C  1  Y    0.101981  -3.614146   1.165929   0.000000
    5  C  1  Z    2.146763  -0.907238  -3.000028   0.000001
    6  C  1  S   -0.000000  -0.000001  -0.000001  -1.095007
    7  C  1  X   12.994692   3.067236   8.371197  -0.000001
    8  C  1  Y   -0.423048  14.992504  -4.836606  -0.000001
    9  C  1  Z   -8.905385   3.763479  12.444968  -0.000002
   10  C  1  S    0.000000   0.000005   0.000006  -1.125189
   11  C  1  X   -1.783070  -0.420872  -1.148656   0.000001
   12  C  1  Y    0.058049  -2.057200   0.663656   0.000001
   13  C  1  Z    1.221954  -0.516407  -1.707640   0.000002
   14  C  1  S    0.000000   0.000024   0.000027  -0.236494
   15  C  1  X    0.683838   0.161411   0.440529   0.000001
   16  C  1  Y   -0.022263   0.788972  -0.254524   0.000001
   17  C  1  Z   -0.468641   0.198051   0.654909   0.000002
   18  C  1 XX   -0.026671  -0.039953   0.017362   0.657426
   19  C  1 YY   -0.010385   0.018570  -0.066525   0.657426
   20  C  1 ZZ    0.037057   0.021380   0.049160   0.657426
   21  C  1 XY   -0.082243  -0.035702   0.048097  -0.000000
   22  C  1 XZ   -0.023411   0.093338   0.043969  -0.000000
   23  C  1 YZ    0.061143  -0.030439   0.059184  -0.000000
   24  C  1 XXX  -6.689360  -1.563693  -4.327219  -0.006960
   25  C  1 YYY   0.219532  -7.720966   2.462772   0.012998
   26  C  1 ZZZ   4.594822  -1.914680  -6.403230   0.007789
   27  C  1 XXY   0.116814  -3.423252   1.123492  -0.019373
   28  C  1 XXZ   2.022790  -0.859035  -2.851799   0.008746
   29  C  1 YYX  -2.968666  -0.720204  -1.913762  -0.018311
   30  C  1 YYZ   2.039561  -0.894135  -2.849176  -0.019195
   31  C  1 ZZX  -2.979729  -0.704297  -1.894152   0.027650
   32  C  1 ZZY   0.074481  -3.435387   1.126713   0.001936
   33  C  1 XYZ   0.009381  -0.007851  -0.003657   0.034513
   34  H  2  S   -0.040636  -0.032587  -0.001200  -0.054754
   35  H  2  S    0.445993   0.357651   0.013165   0.008667
   36  H  2  S   -1.006139  -0.806845  -0.029700   0.257217
   37  H  2  S    1.189403   0.953797   0.035097  -0.002279
   38  H  3  S    0.044248  -0.027279  -0.003561  -0.054754
   39  H  3  S   -0.485630   0.299388   0.039079   0.008667
   40  H  3  S    1.095559  -0.675405  -0.088161   0.257217
   41  H  3  S   -1.295111   0.798416   0.104206  -0.002279
   42  H  4  S   -0.000421   0.026644   0.044769  -0.054754
   43  H  4  S    0.004621  -0.292438  -0.491372   0.008667
   44  H  4  S   -0.010425   0.659728   1.108514   0.257214
   45  H  4  S    0.012324  -0.779904  -1.310434  -0.002282
   46  H  5  S   -0.003191   0.033219  -0.040012  -0.054755
   47  H  5  S    0.035016  -0.364590   0.439141   0.008667
   48  H  5  S   -0.078995   0.822497  -0.990682   0.257217
   49  H  5  S    0.093384  -0.972322   1.171116  -0.002280

  ----- BETA SET ----- 

          ------------
          EIGENVECTORS
          ------------

                      1          2          3          4          5
                  -11.2093    -0.9432    -0.5451    -0.5451    -0.5451
                     A          A          A          A          A   
    1  C  1  S    0.563394  -0.103256  -0.000000  -0.000000  -0.000000
    2  C  1  S    0.466086  -0.167268  -0.000000  -0.000000  -0.000000
    3  C  1  X    0.000000  -0.000000   0.104696   0.030038   0.159676
    4  C  1  Y    0.000000  -0.000000  -0.047828   0.187237  -0.003863
    5  C  1  Z    0.000000  -0.000001   0.155278   0.037419  -0.108852
    6  C  1  S    0.005074   0.431667   0.000001   0.000001   0.000000
    7  C  1  X   -0.000000  -0.000001   0.156352   0.044859   0.238458
    8  C  1  Y   -0.000000  -0.000000  -0.071426   0.279617  -0.005769
    9  C  1  Z   -0.000000  -0.000001   0.231890   0.055881  -0.162558
   10  C  1  S    0.001682   0.344627   0.000001   0.000001   0.000000
   11  C  1  X    0.000000  -0.000000   0.123235   0.035357   0.187951
   12  C  1  Y    0.000000  -0.000000  -0.056298   0.220392  -0.004547
   13  C  1  Z    0.000000  -0.000000   0.182774   0.044045  -0.128126
   14  C  1  S   -0.000153  -0.015039  -0.000000  -0.000000   0.000000
   15  C  1  X   -0.000000   0.000000  -0.015872  -0.004554  -0.024207
   16  C  1  Y   -0.000000   0.000000   0.007251  -0.028385   0.000586
   17  C  1  Z   -0.000000   0.000000  -0.023540  -0.005673   0.016502
   18  C  1 XX   -0.000827   0.017812   0.005853  -0.016036  -0.010607
   19  C  1 YY   -0.000827   0.017812  -0.025669   0.008942  -0.004039
   20  C  1 ZZ   -0.000827   0.017812   0.019816   0.007094   0.014646
   21  C  1 XY   -0.000000  -0.000000   0.018041  -0.014956  -0.032456
   22  C  1 XZ   -0.000000   0.000000   0.019545   0.035650  -0.008940
   23  C  1 YZ   -0.000000  -0.000000   0.022485  -0.013569   0.023975
   24  C  1 XXX  -0.000053  -0.002633   0.008146   0.004115   0.014601
   25  C  1 YYY   0.000099   0.004917  -0.006648   0.016984  -0.000208
   26  C  1 ZZZ   0.000059   0.002946   0.014571   0.005295  -0.009050
   27  C  1 XXY  -0.000147  -0.007329  -0.000969   0.009953   0.001489
   28  C  1 XXZ   0.000066   0.003309   0.007493   0.002095  -0.006739
   29  C  1 YYX  -0.000139  -0.006927   0.005327  -0.000035   0.008439
   30  C  1 YYZ  -0.000146  -0.007262   0.007529  -0.000867  -0.005354
   31  C  1 ZZX   0.000210   0.010460   0.007052   0.001202   0.007521
   32  C  1 ZZY   0.000015   0.000732  -0.000760   0.008946  -0.002069
   33  C  1 XYZ   0.000262   0.013056  -0.000347  -0.000644   0.000782
   34  H  2  S    0.000308   0.080838  -0.010553  -0.106535  -0.135420
   35  H  2  S   -0.000036   0.075838  -0.014675  -0.148141  -0.188307
   36  H  2  S   -0.000215   0.001674  -0.006726  -0.067896  -0.086305
   37  H  2  S    0.000069   0.005517  -0.003512  -0.035451  -0.045063
   38  H  3  S    0.000308   0.080837  -0.017465  -0.090537   0.145937
   39  H  3  S   -0.000036   0.075838  -0.024286  -0.125895   0.202932
   40  H  3  S   -0.000215   0.001674  -0.011131  -0.057700   0.093008
   41  H  3  S    0.000069   0.005517  -0.005812  -0.030128   0.048563
   42  H  4  S    0.000308   0.080837   0.153515   0.078944  -0.000717
   43  H  4  S   -0.000036   0.075837   0.213470   0.109775  -0.000998
   44  H  4  S   -0.000215   0.001674   0.097837   0.050312  -0.000457
   45  H  4  S    0.000069   0.005517   0.051085   0.026270  -0.000239
   46  H  5  S    0.000308   0.080838  -0.125496   0.118128  -0.009800
   47  H  5  S   -0.000036   0.075838  -0.174508   0.164262  -0.013627
   48  H  5  S   -0.000215   0.001674  -0.079980   0.075284  -0.006245
   49  H  5  S    0.000069   0.005517  -0.041761   0.039309  -0.003261

                      6          7          8          9         10
                    0.0420     0.0784     0.0784     0.0784     0.1532
                     A          A          A          A          A   
    1  C  1  S   -0.019123   0.000000   0.000000   0.000000   0.000000
    2  C  1  S   -0.030318   0.000000   0.000000   0.000000   0.000000
    3  C  1  X   -0.000000  -0.017241   0.000173  -0.025712   0.014892
    4  C  1  Y   -0.000000  -0.000057  -0.030958  -0.000170  -0.001023
    5  C  1  Z   -0.000000  -0.025713  -0.000048   0.017241  -0.009906
    6  C  1  S    0.112756  -0.000000  -0.000000  -0.000000  -0.000000
    7  C  1  X    0.000000  -0.058794   0.000589  -0.087682  -0.006975
    8  C  1  Y    0.000000  -0.000193  -0.105569  -0.000580   0.000479
    9  C  1  Z    0.000000  -0.087684  -0.000162   0.058795   0.004640
   10  C  1  S    0.135579  -0.000000   0.000000  -0.000000   0.000000
   11  C  1  X   -0.000001   0.065071  -0.000652   0.097041   0.085612
   12  C  1  Y   -0.000001   0.000214   0.116838   0.000642  -0.005883
   13  C  1  Z   -0.000001   0.097043   0.000180  -0.065071  -0.056950
   14  C  1  S    6.100302   0.000014   0.000004   0.000000   0.000002
   15  C  1  X   -0.000007  -0.698366   0.007001  -1.041488  -3.092801
   16  C  1  Y   -0.000006  -0.002297  -1.253957  -0.006889   0.212522
   17  C  1  Z   -0.000010  -1.041514  -0.001928   0.698364   2.057388
   18  C  1 XX    0.012027  -0.000383   0.003646   0.002405  -0.008410
   19  C  1 YY    0.012027   0.004931  -0.003307   0.000835  -0.004100
   20  C  1 ZZ    0.012027  -0.004548  -0.000339  -0.003240   0.012511
   21  C  1 XY   -0.000000  -0.003054   0.003960   0.007161  -0.026690
   22  C  1 XZ    0.000000  -0.006082  -0.006517   0.001738  -0.008219
   23  C  1 YZ   -0.000000  -0.003973   0.004222  -0.005156   0.021017
   24  C  1 XXX  -0.000348   0.001624  -0.000877   0.001603   0.004419
   25  C  1 YYY   0.000649   0.001157   0.001730  -0.000061  -0.000142
   26  C  1 ZZZ   0.000389   0.001199  -0.000872  -0.001578  -0.001627
   27  C  1 XXY  -0.000968  -0.000779  -0.000124  -0.000875   0.002470
   28  C  1 XXZ   0.000437   0.000073  -0.000164   0.000684  -0.005097
   29  C  1 YYX  -0.000915   0.000134   0.000785  -0.000242   0.005266
   30  C  1 YYZ  -0.000959   0.000441   0.001337   0.000011  -0.002662
   31  C  1 ZZX   0.001381  -0.000889   0.000377   0.000213   0.003750
   32  C  1 ZZY   0.000097  -0.000768   0.000358   0.000971  -0.003307
   33  C  1 XYZ   0.001724   0.000259   0.000287  -0.000394   0.001307
   34  H  2  S   -0.000493   0.004799   0.013042   0.018573  -0.036753
   35  H  2  S    0.028072  -0.008103  -0.022020  -0.031358   0.068813
   36  H  2  S   -0.387020   0.118399   0.321752   0.458191  -0.910120
   37  H  2  S   -1.559427  -0.970567  -2.637479  -3.755885  -3.944107
   38  H  3  S   -0.000493   0.005455   0.011692  -0.019278   0.041344
   39  H  3  S    0.028072  -0.009209  -0.019741   0.032548  -0.077408
   40  H  3  S   -0.387020   0.134562   0.288449  -0.475575   1.023797
   41  H  3  S   -1.559426  -1.103056  -2.364490   3.898386   4.436737
   42  H  4  S   -0.000493  -0.022621  -0.005131  -0.000209  -0.000067
   43  H  4  S    0.028072   0.038194   0.008663   0.000352   0.000126
   44  H  4  S   -0.387016  -0.558061  -0.126580  -0.005145  -0.001668
   45  H  4  S   -1.559402   4.574539   1.037596   0.042176  -0.007228
   46  H  5  S   -0.000493   0.012367  -0.019604   0.000913  -0.004523
   47  H  5  S    0.028072  -0.020880   0.033099  -0.001542   0.008469
   48  H  5  S   -0.387020   0.305091  -0.483625   0.022529  -0.112009
   49  H  5  S   -1.559424  -2.500922   3.964372  -0.184678  -0.485403

                     11         12         13         14         15
                    0.1532     0.1532     0.1889     0.3090     0.3090
                     A          A          A          A          A   
    1  C  1  S    0.000000   0.000000   0.037524  -0.000001  -0.000000
    2  C  1  S    0.000000   0.000000   0.066255  -0.000001  -0.000000
    3  C  1  X    0.001889   0.009778  -0.000000   0.086712   0.137883
    4  C  1  Y    0.017787  -0.001877   0.000000   0.043145  -0.035274
    5  C  1  Z    0.001002   0.014893  -0.000000   0.131163  -0.079551
    6  C  1  S   -0.000001  -0.000001  -0.148104   0.000001   0.000000
    7  C  1  X   -0.000885  -0.004580   0.000001   0.037495   0.059621
    8  C  1  Y   -0.008331   0.000879   0.000001   0.018656  -0.015253
    9  C  1  Z   -0.000469  -0.006975   0.000001   0.056716  -0.034398
   10  C  1  S    0.000001   0.000002  -0.586276   0.000032   0.000000
   11  C  1  X    0.010858   0.056213  -0.000003   0.836582   1.330268
   12  C  1  Y    0.102255  -0.010792  -0.000002   0.416254  -0.340316
   13  C  1  Z    0.005760   0.085618  -0.000004   1.265443  -0.767494
   14  C  1  S    0.000036   0.000083  14.606350   0.000115   0.000004
   15  C  1  X   -0.392265  -2.030808  -0.000008  -0.598429  -0.951581
   16  C  1  Y   -3.694087   0.389882  -0.000009  -0.297760   0.243438
   17  C  1  Z   -0.208091  -3.093117  -0.000011  -0.905206   0.549012
   18  C  1 XX   -0.014438   0.003076   0.000823   0.000474   0.001238
   19  C  1 YY    0.010471  -0.020329   0.000823   0.003193   0.001536
   20  C  1 ZZ    0.003967   0.017252   0.000823  -0.003669  -0.002774
   21  C  1 XY   -0.015676   0.013683  -0.000000  -0.001595   0.004842
   22  C  1 XZ    0.027162   0.020811  -0.000000  -0.006240   0.002252
   23  C  1 YZ   -0.013350   0.016845  -0.000000  -0.002219  -0.005107
   24  C  1 XXX   0.003134   0.000986   0.002399   0.019275   0.030863
   25  C  1 YYY   0.005745  -0.004303  -0.004480   0.008818  -0.007988
   26  C  1 ZZZ   0.003313   0.005566  -0.002685   0.030067  -0.017644
   27  C  1 XXY   0.006018   0.001850   0.006677   0.005202  -0.002969
   28  C  1 XXZ   0.000649   0.004078  -0.003015   0.013781  -0.008970
   29  C  1 YYX  -0.001928   0.002686   0.006312   0.008838   0.014848
   30  C  1 YYZ  -0.004088   0.003401   0.006616   0.013142  -0.008152
   31  C  1 ZZX  -0.000381   0.005804  -0.009530   0.009769   0.014453
   32  C  1 ZZY   0.004125   0.002040  -0.000667   0.005093  -0.004403
   33  C  1 XYZ  -0.000918  -0.000736  -0.011896  -0.000278   0.000365
   34  H  2  S   -0.030264  -0.006614  -0.013588   0.012874   0.025026
   35  H  2  S    0.056663   0.012386   0.179633   0.013105   0.025471
   36  H  2  S   -0.749420  -0.163805  -1.386824   1.006718   1.956934
   37  H  2  S   -3.247681  -0.709834  -2.650502  -1.186492  -2.306303
   38  H  3  S   -0.022780  -0.009065  -0.013588   0.013619  -0.033915
   39  H  3  S    0.042652   0.016974   0.179633   0.013863  -0.034518
   40  H  3  S   -0.564116  -0.224486  -1.386824   1.064974  -2.652030
   41  H  3  S   -2.444643  -0.972803  -2.650502  -1.255147   3.125489
   42  H  4  S    0.015592   0.045468  -0.013588  -0.037439  -0.000877
   43  H  4  S   -0.029193  -0.085128   0.179634  -0.038104  -0.000892
   44  H  4  S    0.386106   1.125916  -1.386818  -2.927573  -0.068570
   45  H  4  S    1.673232   4.879263  -2.650488   3.450167   0.080810
   46  H  5  S    0.037452  -0.029788  -0.013588   0.010943   0.009766
   47  H  5  S   -0.070120   0.055774   0.179633   0.011140   0.009940
   48  H  5  S    0.927414  -0.737658  -1.386823   0.855767   0.763663
   49  H  5  S    4.019066  -3.196688  -2.650499  -1.008587  -0.899998

                     16         17         18         19         20
                    0.3090     0.3768     0.5537     0.5537     0.5537
                     A          A          A          A          A   
    1  C  1  S   -0.000000  -0.048861   0.000000  -0.000000  -0.000000
    2  C  1  S   -0.000000  -0.098393  -0.000000  -0.000000   0.000000
    3  C  1  X    0.007326  -0.000001  -0.007078   0.000402   0.004719
    4  C  1  Y    0.153227  -0.000001  -0.000295  -0.008507   0.000282
    5  C  1  Z   -0.055245  -0.000001   0.004727   0.000071   0.007084
    6  C  1  S    0.000000  -0.006802  -0.000000  -0.000000   0.000001
    7  C  1  X    0.003168   0.000000   0.062572  -0.003556  -0.041714
    8  C  1  Y    0.066256  -0.000000   0.002610   0.075199  -0.002496
    9  C  1  Z   -0.023888   0.000000  -0.041784  -0.000628  -0.062623
   10  C  1  S    0.000004   4.408105   0.000001   0.000008  -0.000029
   11  C  1  X    0.070676  -0.000016  -1.251580   0.071138   0.834377
   12  C  1  Y    1.478308  -0.000011  -0.052215  -1.504154   0.049915
   13  C  1  Z   -0.532999  -0.000022   0.835770   0.012557   1.252613
   14  C  1  S    0.000004  14.954585   0.000003   0.000030  -0.000076
   15  C  1  X   -0.050558  -0.000023   1.507377  -0.085677  -1.004908
   16  C  1  Y   -1.057478  -0.000019   0.062887   1.811572  -0.060118
   17  C  1  Z    0.381268  -0.000033  -1.006584  -0.015123  -1.508624
   18  C  1 XX    0.003352  -0.064404  -0.006356  -0.009081  -0.000698
   19  C  1 YY   -0.003427  -0.064404  -0.001895   0.008822   0.012216
   20  C  1 ZZ    0.000074  -0.064404   0.008251   0.000258  -0.011517
   21  C  1 XY    0.005057  -0.000000  -0.018408  -0.009736  -0.007469
   22  C  1 XZ   -0.003427  -0.000000  -0.003889   0.016136  -0.015929
   23  C  1 YZ    0.003111  -0.000000   0.012761  -0.011380  -0.009686
   24  C  1 XXX   0.002459  -0.001366  -0.013447  -0.002967   0.006695
   25  C  1 YYY   0.034935   0.002550  -0.000873  -0.017025  -0.004309
   26  C  1 ZZZ  -0.011735   0.001528   0.006675  -0.003441   0.015172
   27  C  1 XXY   0.016225  -0.003802  -0.004092  -0.011127   0.003652
   28  C  1 XXZ  -0.005801   0.001716   0.008875  -0.000693   0.008726
   29  C  1 YYX   0.000222  -0.003594  -0.009920   0.003833   0.005326
   30  C  1 YYZ  -0.006785  -0.003767   0.006222   0.005671   0.006968
   31  C  1 ZZX   0.000236   0.005426  -0.008059   0.002194   0.009704
   32  C  1 ZZY   0.015481   0.000380   0.003761  -0.009320   0.003565
   33  C  1 XYZ  -0.000095   0.006773  -0.001625   0.001224  -0.001136
   34  H  2  S    0.024748  -0.041359  -0.056403  -0.036717   0.015331
   35  H  2  S    0.025188   0.029754  -1.282753  -0.835036   0.348670
   36  H  2  S    1.935176  -3.576203   1.291128   0.840480  -0.350925
   37  H  2  S   -2.280661  -2.027185   1.271470   0.827689  -0.345595
   38  H  3  S    0.008293  -0.041359   0.056292  -0.035920   0.017478
   39  H  3  S    0.008441   0.029754   1.280211  -0.816921   0.397506
   40  H  3  S    0.648502  -3.576200  -1.288571   0.822247  -0.400079
   41  H  3  S   -0.764280  -2.027184  -1.268950   0.809733  -0.394002
   42  H  4  S    0.001446  -0.041359   0.001198   0.013122  -0.067756
   43  H  4  S    0.001472   0.029751   0.027253   0.298427  -1.540951
   44  H  4  S    0.113071  -3.576120  -0.027432  -0.300384   1.551027
   45  H  4  S   -0.133256  -2.027151  -0.027013  -0.295803   1.527410
   46  H  5  S   -0.034487  -0.041359  -0.001087   0.059516   0.034946
   47  H  5  S   -0.035100   0.029753  -0.024710   1.353532   0.794769
   48  H  5  S   -2.696758  -3.576192   0.024871  -1.362374  -0.799931
   49  H  5  S    3.178196  -2.027178   0.024492  -1.341635  -0.787777

                     21         22         23         24         25
                    0.8609     0.8794     0.8794     0.8794     0.9612
                     A          A          A          A          A   
    1  C  1  S    0.011617   0.000000   0.000000  -0.000000   0.112166
    2  C  1  S    0.032424  -0.000001  -0.000000  -0.000000   0.135931
    3  C  1  X   -0.000012  -0.132728  -0.216988   0.023351   0.000002
    4  C  1  Y   -0.000006  -0.079039   0.022319  -0.241868   0.000001
    5  C  1  Z   -0.000016  -0.203425   0.132905   0.078740   0.000002
    6  C  1  S    0.386746  -0.000051  -0.000002   0.000000  -2.011238
    7  C  1  X   -0.000051  -0.597544  -0.976882   0.105125   0.000007
    8  C  1  Y   -0.000029  -0.355835   0.100479  -1.088896   0.000003
    9  C  1  Z   -0.000071  -0.915822   0.598343   0.354491   0.000010
   10  C  1  S   -2.859348   0.000291   0.000014  -0.000002   6.374831
   11  C  1  X    0.000106   1.067545   1.745252  -0.187812  -0.000017
   12  C  1  Y    0.000061   0.635719  -0.179512   1.945370  -0.000010
   13  C  1  Z    0.000147   1.636168  -1.068971  -0.633316  -0.000023
   14  C  1  S    8.538331  -0.000708  -0.000030  -0.000011   3.893034
   15  C  1  X   -0.000064  -0.533634  -0.872402   0.093881  -0.000007
   16  C  1  Y   -0.000040  -0.317778   0.089733  -0.972435  -0.000007
   17  C  1  Z   -0.000089  -0.817872   0.534349   0.316576  -0.000010
   18  C  1 XX    0.061684  -0.002255  -0.006244  -0.011680  -0.388393
   19  C  1 YY    0.061684  -0.011237  -0.004104   0.013946  -0.388392
   20  C  1 ZZ    0.061686   0.013466   0.010346  -0.002266  -0.388393
   21  C  1 XY    0.000000   0.005392  -0.020317  -0.016557  -0.000000
   22  C  1 XZ    0.000002   0.023928  -0.006393   0.012680  -0.000000
   23  C  1 YZ    0.000001   0.007438   0.017412  -0.014368  -0.000000
   24  C  1 XXX   0.004490  -0.006731  -0.010899   0.001495  -0.000686
   25  C  1 YYY  -0.008385  -0.004299   0.001119  -0.011931   0.001281
   26  C  1 ZZZ  -0.005025  -0.009972   0.006799   0.004192   0.000768
   27  C  1 XXY   0.012498  -0.001429   0.000769  -0.005157  -0.001910
   28  C  1 XXZ  -0.005643  -0.004333   0.002598   0.001711   0.000862
   29  C  1 YYX   0.011813  -0.002948  -0.004516   0.000274  -0.001805
   30  C  1 YYZ   0.012383  -0.004604   0.002860   0.001302  -0.001892
   31  C  1 ZZX  -0.017838  -0.002582  -0.004664   0.000283   0.002726
   32  C  1 ZZY  -0.001249  -0.001474   0.000178  -0.005368   0.000191
   33  C  1 XYZ  -0.022266  -0.000110   0.000135  -0.000050   0.003402
   34  H  2  S    0.057602  -0.022198  -0.046191  -0.033756   0.044071
   35  H  2  S    1.461104  -0.243779  -0.507123  -0.370597   0.176415
   36  H  2  S   -1.526618   0.835274   1.738196   1.270254  -2.215498
   37  H  2  S   -1.265363  -0.848261  -1.765679  -1.290341  -0.295785
   38  H  3  S    0.057602  -0.023775   0.053018  -0.019737   0.044071
   39  H  3  S    1.461106  -0.261092   0.582077  -0.216686   0.176414
   40  H  3  S   -1.526627   0.894618  -1.995135   0.742713  -2.215495
   41  H  3  S   -1.265352  -0.908544   2.026701  -0.754455  -0.295785
   42  H  4  S    0.057609   0.061101   0.001728  -0.005356   0.044070
   43  H  4  S    1.461162   0.670742   0.018967  -0.058801   0.176403
   44  H  4  S   -1.526884  -2.299335  -0.065026   0.201544  -2.215443
   45  H  4  S   -1.265040   2.335921   0.066064  -0.204725  -0.295782
   46  H  5  S    0.057602  -0.015146  -0.008556   0.058848   0.044071
   47  H  5  S    1.461108  -0.166355  -0.093943   0.646081   0.176415
   48  H  5  S   -1.526646   0.569897   0.321984  -2.214500  -2.215494
   49  H  5  S   -1.265326  -0.578684  -0.327067   2.249527  -0.295780

                     26         27         28         29         30
                    1.5207     1.5207     1.8696     1.8696     1.8696
                     A          A          A          A          A   
    1  C  1  S    0.000000  -0.000000  -0.000000  -0.000000   0.000000
    2  C  1  S    0.000000  -0.000000  -0.000000  -0.000000   0.000000
    3  C  1  X   -0.000000  -0.000000  -0.011057  -0.034029   0.013911
    4  C  1  Y   -0.000000   0.000000  -0.031607   0.001380  -0.021745
    5  C  1  Z    0.000000  -0.000000  -0.018775   0.017716   0.028415
    6  C  1  S   -0.000000   0.000001  -0.000000   0.000000  -0.000000
    7  C  1  X   -0.000000  -0.000000  -0.009741  -0.029982   0.012256
    8  C  1  Y   -0.000000   0.000000  -0.027848   0.001216  -0.019160
    9  C  1  Z    0.000000  -0.000000  -0.016541   0.015610   0.025035
   10  C  1  S    0.000001  -0.000003   0.000011   0.000002  -0.000009
   11  C  1  X   -0.000000  -0.000000  -0.256701  -0.790044   0.322977
   12  C  1  Y    0.000000  -0.000000  -0.733813   0.032045  -0.504846
   13  C  1  Z    0.000000  -0.000000  -0.435895   0.411313   0.659698
   14  C  1  S    0.000000  -0.000001   0.000018   0.000001  -0.000006
   15  C  1  X    0.000000   0.000000   0.206292   0.634901  -0.259553
   16  C  1  Y    0.000000  -0.000000   0.589712  -0.025752   0.405708
   17  C  1  Z   -0.000000   0.000000   0.350297  -0.330543  -0.530151
   18  C  1 XX   -0.716421  -0.527465   0.318677   0.257776   0.312037
   19  C  1 YY   -0.056399   0.779061   0.006767   0.177514  -0.681630
   20  C  1 ZZ    0.772820  -0.251595  -0.325446  -0.435290   0.369595
   21  C  1 XY    0.256109   0.327186   0.154709   0.776513   0.652696
   22  C  1 XZ   -0.315986   0.074435  -1.041498   0.155828   0.171783
   23  C  1 YZ   -0.303481   0.505079   0.160102  -0.673609   0.592776
   24  C  1 XXX   0.000000   0.000000  -0.031290  -0.076230   0.017578
   25  C  1 YYY   0.000000  -0.000000  -0.064715   0.004127  -0.065688
   26  C  1 ZZZ  -0.000001   0.000000  -0.056985   0.032768   0.061486
   27  C  1 XXY  -0.000000   0.000000  -0.050859  -0.012475  -0.022569
   28  C  1 XXZ   0.000000   0.000000  -0.027246   0.034592   0.037541
   29  C  1 YYX  -0.000000  -0.000000  -0.004042  -0.050199   0.023586
   30  C  1 YYZ   0.000000  -0.000001  -0.005155   0.024163   0.044712
   31  C  1 ZZX  -0.000000  -0.000000  -0.018083  -0.044824   0.033486
   32  C  1 ZZY   0.000000  -0.000000  -0.045571   0.014941  -0.015376
   33  C  1 XYZ  -0.000000  -0.000000   0.005959  -0.005656  -0.001414
   34  H  2  S    0.000000  -0.000000   0.198429   0.283023   0.086133
   35  H  2  S   -0.000001   0.000001  -1.039283  -1.482342  -0.451122
   36  H  2  S    0.000000   0.000000   0.543080   0.774610   0.235743
   37  H  2  S   -0.000000   0.000000   0.289231   0.412532   0.125546
   38  H  3  S   -0.000000  -0.000000   0.203741  -0.292206  -0.000303
   39  H  3  S    0.000000   0.000001  -1.067105   1.530438   0.001591
   40  H  3  S   -0.000001   0.000000   0.557618  -0.799746  -0.000827
   41  H  3  S   -0.000000   0.000000   0.296973  -0.425918  -0.000443
   42  H  4  S   -0.000000  -0.000000  -0.262064  -0.038218   0.238236
   43  H  4  S   -0.000000   0.000001   1.372572   0.200170  -1.247769
   44  H  4  S   -0.000000   0.000001  -0.717252  -0.104601   0.652032
   45  H  4  S   -0.000000   0.000000  -0.381990  -0.055708   0.347259
   46  H  5  S   -0.000000   0.000000  -0.140109   0.047401  -0.324064
   47  H  5  S   -0.000000   0.000000   0.733823  -0.248267   1.697302
   48  H  5  S   -0.000000   0.000001  -0.383473   0.129733  -0.886934
   49  H  5  S   -0.000000   0.000000  -0.204221   0.069093  -0.472360

                     31         32         33         34         35
                    2.5145     2.6535     2.6535     2.6535     3.0316
                     A          A          A          A          A   
    1  C  1  S   -0.041867   0.000000   0.000000   0.000000  -0.000000
    2  C  1  S   -0.128668   0.000001   0.000000   0.000000   0.000000
    3  C  1  X    0.000001   0.188196   0.294927   0.033158  -0.000001
    4  C  1  Y    0.000000   0.081926  -0.089362   0.329850   0.000003
    5  C  1  Z    0.000002   0.285255  -0.168911  -0.116611  -0.000001
    6  C  1  S    0.201117  -0.000002  -0.000000  -0.000000  -0.000000
    7  C  1  X   -0.000000  -0.098124  -0.153773  -0.017288   0.000000
    8  C  1  Y    0.000000  -0.042716   0.046593  -0.171982  -0.000001
    9  C  1  Z    0.000000  -0.148731   0.088069   0.060800   0.000000
   10  C  1  S   -0.284065   0.000004   0.000000  -0.000000  -0.000000
   11  C  1  X    0.000006   0.185861   0.291269   0.032747  -0.000001
   12  C  1  Y    0.000004   0.080910  -0.088254   0.325759   0.000003
   13  C  1  Z    0.000008   0.281716  -0.166816  -0.115164  -0.000001
   14  C  1  S    5.812860  -0.000053  -0.000001  -0.000004  -0.000000
   15  C  1  X   -0.000011   0.030667   0.048057   0.005403   0.000000
   16  C  1  Y   -0.000009   0.013350  -0.014561   0.053747  -0.000001
   17  C  1  Z   -0.000015   0.046484  -0.027523  -0.019002   0.000000
   18  C  1 XX   -0.293474  -0.017098  -0.050317  -0.155355  -0.000000
   19  C  1 YY   -0.293475  -0.150789  -0.074793   0.148576   0.000001
   20  C  1 ZZ   -0.293472   0.167893   0.125110   0.006779  -0.000000
   21  C  1 XY    0.000000   0.078541  -0.212065  -0.236278  -0.000000
   22  C  1 XZ    0.000003   0.278430  -0.110655   0.160914   0.000000
   23  C  1 YZ    0.000001   0.106997   0.237107  -0.129345  -0.000001
   24  C  1 XXX   0.061172   0.109584   0.095728  -0.269904   0.237095
   25  C  1 YYY  -0.114220   0.319086   0.011976  -0.113012  -0.576551
   26  C  1 ZZZ  -0.068446  -0.154118  -0.094261  -0.260065  -0.007638
   27  C  1 XXY   0.170254  -0.284069  -0.190461  -0.278744   0.198711
   28  C  1 XXZ  -0.076866  -0.187376   0.321920   0.084165  -0.211915
   29  C  1 YYX   0.160929  -0.037925  -0.327207   0.164150   0.169361
   30  C  1 YYZ   0.168694   0.019275   0.026520   0.417993   0.222164
   31  C  1 ZZX  -0.243001  -0.356417  -0.188807   0.154389  -0.487456
   32  C  1 ZZY  -0.017012  -0.251695   0.291830  -0.003109   0.574809
   33  C  1 XYZ  -0.303313   0.093547  -0.127207   0.030898   0.597962
   34  H  2  S   -0.590413   0.294457   0.576399   0.627703   0.000001
   35  H  2  S    1.541705  -0.407831  -0.798315  -0.869373  -0.000001
   36  H  2  S   -1.538965   0.403187   0.789225   0.859474   0.000001
[...]
   44  H  4  S   -1.538974  -1.234340  -0.021291   0.007469   0.000001
   45  H  4  S   -0.780595   0.431266   0.007439  -0.002608  -0.000001
   46  H  5  S   -0.590412   0.291129   0.264634  -0.811273  -0.000002
   47  H  5  S    1.541703  -0.403223  -0.366520   1.123617   0.000002
   48  H  5  S   -1.538965   0.398631   0.362346  -1.110823  -0.000004
   49  H  5  S   -0.780628  -0.139261  -0.126598   0.388105   0.000003

                     36         37         38         39         40
                    3.0316     3.0316     3.1302     3.1302     3.1302
                     A          A          A          A          A   
    1  C  1  S    0.000000  -0.000000  -0.000000   0.000000  -0.000000
    2  C  1  S    0.000000  -0.000000  -0.000001   0.000000  -0.000000
    3  C  1  X    0.000002   0.000000   0.001750  -0.821325  -0.069166
    4  C  1  Y    0.000000   0.000000   0.026088  -0.069077   0.820920
    5  C  1  Z   -0.000002  -0.000000   0.823817   0.003936  -0.025850
    6  C  1  S   -0.000000   0.000000   0.000003  -0.000002   0.000001
    7  C  1  X   -0.000001  -0.000000  -0.000365   0.171416   0.014435
    8  C  1  Y   -0.000000  -0.000000  -0.005445   0.014417  -0.171332
    9  C  1  Z    0.000000   0.000000  -0.171936  -0.000822   0.005395
   10  C  1  S   -0.000000   0.000000  -0.000002   0.000002  -0.000001
   11  C  1  X    0.000002   0.000001   0.001871  -0.877410  -0.073890
   12  C  1  Y    0.000000   0.000000   0.027870  -0.073794   0.876977
   13  C  1  Z   -0.000002  -0.000000   0.880074   0.004204  -0.027615
   14  C  1  S   -0.000000   0.000000  -0.000019   0.000014  -0.000007
   15  C  1  X   -0.000001  -0.000000  -0.000986   0.462477   0.038947
   16  C  1  Y   -0.000000   0.000000  -0.014690   0.038896  -0.462249
   17  C  1  Z    0.000001   0.000000  -0.463882  -0.002216   0.014556
   18  C  1 XX   -0.000000  -0.000000   0.003991   0.005403  -0.009250
   19  C  1 YY   -0.000000  -0.000000  -0.009195   0.008220   0.009603
   20  C  1 ZZ    0.000000   0.000000   0.005200  -0.013621  -0.000355
   21  C  1 XY   -0.000001  -0.000000   0.016631   0.011929  -0.009978
   22  C  1 XZ   -0.000000  -0.000000   0.016261  -0.006304   0.016014
   23  C  1 YZ    0.000000   0.000000   0.000791  -0.016013  -0.012330
   24  C  1 XXX   0.193430  -0.353340  -0.147228   0.980153   0.382259
   25  C  1 YYY  -0.023355   0.085833  -0.365664   0.266252  -0.805565
   26  C  1 ZZZ  -0.609425  -0.007774  -0.873933  -0.245509   0.306820
   27  C  1 XXY   0.592425  -0.185864   0.052972  -0.387123  -0.100862
   28  C  1 XXZ   0.642890   0.572524  -0.000556   0.201941   0.071488
   29  C  1 YYX  -0.159548   0.795230  -0.092483   0.088019  -0.257029
   30  C  1 YYZ   0.174741  -0.562093  -0.248219   0.120654  -0.438533
   31  C  1 ZZX  -0.099968  -0.321176   0.286989   0.013945  -0.136497
   32  C  1 ZZY  -0.561092   0.070707   0.392609   0.149082  -0.234640
   33  C  1 XYZ   0.269939   0.034757  -0.150702  -0.055012  -0.097173
   34  H  2  S    0.000001   0.000000  -0.024381  -0.079184   0.048876
   35  H  2  S   -0.000002  -0.000000   0.053355   0.173283  -0.106958
   36  H  2  S    0.000002   0.000001  -0.166279  -0.540037   0.333337
   37  H  2  S   -0.000002  -0.000001   0.221179   0.718309  -0.443376
   38  H  3  S   -0.000001  -0.000000   0.064759   0.050150   0.050445
   39  H  3  S    0.000002   0.000000  -0.141715  -0.109747  -0.110391
   40  H  3  S   -0.000003  -0.000001   0.441656   0.342025   0.344036
   41  H  3  S    0.000002   0.000001  -0.587448  -0.454941  -0.457607
   42  H  4  S    0.000000   0.000000  -0.078215   0.054084  -0.014503
   43  H  4  S   -0.000000  -0.000000   0.171161  -0.118353   0.031739
   44  H  4  S    0.000000   0.000000  -0.533431   0.368851  -0.098913
   45  H  4  S   -0.000000  -0.000000   0.709539  -0.490625   0.131570
   46  H  5  S   -0.000000  -0.000000   0.037840  -0.025051  -0.084817
   47  H  5  S    0.000000   0.000000  -0.082808   0.054822   0.185610
   48  H  5  S   -0.000000  -0.000000   0.258073  -0.170852  -0.578453
   49  H  5  S    0.000000  -0.000000  -0.343260   0.227249   0.769416

                     41         42         43         44         45
                    3.3808     3.9787     3.9787     3.9787     4.6266
                     A          A          A          A          A   
    1  C  1  S   -0.158491   0.000000   0.000000  -0.000000   0.054951
    2  C  1  S   -0.612494   0.000001   0.000001  -0.000000   0.224128
    3  C  1  X    0.000000   0.207715  -0.172849  -0.270164   0.000001
    4  C  1  Y    0.000000   0.066829   0.338134  -0.164955   0.000000
    5  C  1  Z    0.000001   0.313691   0.042418   0.214036   0.000001
    6  C  1  S    1.623875  -0.000000  -0.000002   0.000001  -1.033741
    7  C  1  X   -0.000001   0.175782  -0.146278  -0.228634   0.000001
    8  C  1  Y   -0.000001   0.056555   0.286154  -0.139598  -0.000000
    9  C  1  Z   -0.000001   0.265465   0.035898   0.181133   0.000001
   10  C  1  S    3.839774  -0.000010  -0.000003   0.000001  -0.511334
   11  C  1  X   -0.000004   0.121735  -0.101300  -0.158331   0.000001
   12  C  1  Y   -0.000003   0.039166   0.198166  -0.096673   0.000001
   13  C  1  Z   -0.000005   0.183843   0.024859   0.125437   0.000002
   14  C  1  S    0.602201  -0.000008   0.000003  -0.000000   1.838938
   15  C  1  X   -0.000004  -0.125459   0.104399   0.163176  -0.000003
   16  C  1  Y   -0.000003  -0.040364  -0.204229   0.099631  -0.000002
   17  C  1  Z   -0.000005  -0.189467  -0.025620  -0.129276  -0.000004
   18  C  1 XX   -1.522187   0.013307   0.123763  -0.205770   0.634622
   19  C  1 YY   -1.522187   0.234743  -0.223562   0.055237   0.634624
   20  C  1 ZZ   -1.522187  -0.248042   0.099803   0.150530   0.634622
   21  C  1 XY   -0.000000  -0.129216   0.049311  -0.458633  -0.000001
   22  C  1 XZ   -0.000000  -0.390879  -0.305747   0.043046   0.000000
   23  C  1 YZ   -0.000000  -0.173183   0.362314   0.140683  -0.000002
   24  C  1 XXX  -0.052185   0.010149  -0.251181   0.406358  -0.158335
   25  C  1 YYY   0.097448   0.450006  -0.425130   0.239822   0.295651
   26  C  1 ZZZ   0.058393  -0.505297  -0.260891   0.191923   0.177158
   27  C  1 XXY  -0.145251  -0.452578  -0.293230   0.590929  -0.440687
   28  C  1 XXZ   0.065575  -0.419779  -0.266500  -0.547048   0.198952
   29  C  1 YYX  -0.137292  -0.167169   0.598554   0.328278  -0.416546
   30  C  1 YYZ  -0.143916  -0.133660   0.450012  -0.550631  -0.436645
   31  C  1 ZZX   0.207307  -0.661816   0.416953   0.187054   0.628967
   32  C  1 ZZY   0.014511  -0.413499  -0.463726  -0.265159   0.044029
   33  C  1 XYZ   0.258765   0.140443   0.175837   0.114848   0.785089
   34  H  2  S   -0.014321  -0.364093  -0.146854   1.160017  -0.779931
   35  H  2  S   -0.014260   0.241745   0.097506  -0.770209   0.599911
   36  H  2  S   -0.834296  -0.116349  -0.046930   0.370707  -0.421993
   37  H  2  S    0.033940  -0.044299  -0.017868   0.141136  -0.259772
   38  H  3  S   -0.014321  -0.395318  -0.942708  -0.674384  -0.779931
   39  H  3  S   -0.014260   0.262477   0.625924   0.447767   0.599911
   40  H  3  S   -0.834296  -0.126328  -0.301262  -0.215514  -0.421993
   41  H  3  S    0.033940  -0.048098  -0.114697  -0.082050  -0.259772
   42  H  4  S   -0.014319   1.223053   0.046852  -0.041146  -0.779929
   43  H  4  S   -0.014259  -0.812069  -0.031108   0.027319   0.599912
   44  H  4  S   -0.834286   0.390855   0.014973  -0.013149  -0.421995
   45  H  4  S    0.033950   0.148813   0.005700  -0.005006  -0.259762
   46  H  5  S   -0.014321  -0.463641   1.042705  -0.444485  -0.779936
   47  H  5  S   -0.014259   0.307841  -0.692318   0.295122   0.599914
   48  H  5  S   -0.834296  -0.148161   0.333217  -0.142044  -0.421995
   49  H  5  S    0.033942  -0.056413   0.126864  -0.054080  -0.259771

                     46         47         48         49
                    9.5005     9.5005     9.5005    27.6959
                     A          A          A          A   
    1  C  1  S   -0.000000  -0.000000  -0.000000  -2.115163
    2  C  1  S   -0.000000  -0.000000  -0.000000   2.569535
    3  C  1  X   -3.132546  -0.739399  -2.017990   0.000000
    4  C  1  Y    0.101981  -3.614146   1.165929   0.000000
    5  C  1  Z    2.146763  -0.907238  -3.000028   0.000001
    6  C  1  S   -0.000000  -0.000001  -0.000001  -1.095007
    7  C  1  X   12.994692   3.067236   8.371197  -0.000001
    8  C  1  Y   -0.423048  14.992504  -4.836606  -0.000001
    9  C  1  Z   -8.905385   3.763479  12.444968  -0.000002
   10  C  1  S    0.000000   0.000005   0.000006  -1.125189
   11  C  1  X   -1.783070  -0.420872  -1.148656   0.000001
   12  C  1  Y    0.058049  -2.057200   0.663656   0.000001
   13  C  1  Z    1.221954  -0.516407  -1.707640   0.000002
   14  C  1  S    0.000000   0.000024   0.000027  -0.236494
   15  C  1  X    0.683838   0.161411   0.440529   0.000001
   16  C  1  Y   -0.022263   0.788972  -0.254524   0.000001
   17  C  1  Z   -0.468641   0.198051   0.654909   0.000002
   18  C  1 XX   -0.026671  -0.039953   0.017362   0.657426
   19  C  1 YY   -0.010385   0.018570  -0.066525   0.657426
   20  C  1 ZZ    0.037057   0.021380   0.049160   0.657426
   21  C  1 XY   -0.082243  -0.035702   0.048097  -0.000000
   22  C  1 XZ   -0.023411   0.093338   0.043969  -0.000000
   23  C  1 YZ    0.061143  -0.030439   0.059184  -0.000000
   24  C  1 XXX  -6.689360  -1.563693  -4.327219  -0.006960
   25  C  1 YYY   0.219532  -7.720966   2.462772   0.012998
   26  C  1 ZZZ   4.594822  -1.914680  -6.403230   0.007789
   27  C  1 XXY   0.116814  -3.423252   1.123492  -0.019373
   28  C  1 XXZ   2.022790  -0.859035  -2.851799   0.008746
   29  C  1 YYX  -2.968666  -0.720204  -1.913762  -0.018311
   30  C  1 YYZ   2.039561  -0.894135  -2.849176  -0.019195
   31  C  1 ZZX  -2.979729  -0.704297  -1.894152   0.027650
   32  C  1 ZZY   0.074481  -3.435387   1.126713   0.001936
   33  C  1 XYZ   0.009381  -0.007851  -0.003657   0.034513
   34  H  2  S   -0.040636  -0.032587  -0.001200  -0.054754
   35  H  2  S    0.445993   0.357651   0.013165   0.008667
   36  H  2  S   -1.006139  -0.806845  -0.029700   0.257217
   37  H  2  S    1.189403   0.953797   0.035097  -0.002279
   38  H  3  S    0.044248  -0.027279  -0.003561  -0.054754
   39  H  3  S   -0.485630   0.299388   0.039079   0.008667
   40  H  3  S    1.095559  -0.675405  -0.088161   0.257217
   41  H  3  S   -1.295111   0.798416   0.104206  -0.002279
   42  H  4  S   -0.000421   0.026644   0.044769  -0.054754
   43  H  4  S    0.004621  -0.292438  -0.491372   0.008667
   44  H  4  S   -0.010425   0.659728   1.108514   0.257214
   45  H  4  S    0.012324  -0.779904  -1.310434  -0.002282
   46  H  5  S   -0.003191   0.033219  -0.040012  -0.054755
   47  H  5  S    0.035016  -0.364590   0.439141   0.008667
   48  H  5  S   -0.078995   0.822497  -0.990682   0.257217
   49  H  5  S    0.093384  -0.972322   1.171116  -0.002280
 ...... END OF UHF CALCULATION ......
 STEP CPU TIME =     0.32 TOTAL CPU TIME =          0.3 (      0.0 MIN)
 TOTAL WALL CLOCK TIME=          0.4 SECONDS, CPU UTILIZATION IS    94.29%

     ----------------------------------------------------------------
     PROPERTY VALUES FOR THE UHF   SELF-CONSISTENT FIELD WAVEFUNCTION
     ----------------------------------------------------------------

          -----------------
          ENERGY COMPONENTS
          -----------------

         WAVEFUNCTION NORMALIZATION =       1.0000000000

                ONE ELECTRON ENERGY =     -79.7071400931
                TWO ELECTRON ENERGY =      26.0658284390
           NUCLEAR REPULSION ENERGY =      13.4353882208
                                      ------------------
                       TOTAL ENERGY =     -40.2059234333

 ELECTRON-ELECTRON POTENTIAL ENERGY =      26.0658284390
  NUCLEUS-ELECTRON POTENTIAL ENERGY =    -119.8568189241
   NUCLEUS-NUCLEUS POTENTIAL ENERGY =      13.4353882208
                                      ------------------
             TOTAL POTENTIAL ENERGY =     -80.3556022643
               TOTAL KINETIC ENERGY =      40.1496788310
                 VIRIAL RATIO (V/T) =       2.0014008730

          ---------------------------------------
          MULLIKEN AND LOWDIN POPULATION ANALYSES
          ---------------------------------------

     ATOMIC MULLIKEN POPULATION IN EACH MOLECULAR ORBITAL
        ALPHA ORBITALS

                      1          2          3          4          5

                  1.000000   1.000000   1.000000   1.000000   1.000000

    1             1.000060   0.706208   0.563300   0.563300   0.563300
    2            -0.000015   0.073448   0.001224   0.124743   0.201558
    3            -0.000015   0.073448   0.003353   0.090091   0.234081
    4            -0.000015   0.073447   0.259024   0.068497   0.000006
    5            -0.000015   0.073448   0.173100   0.153369   0.001055

     ATOMIC MULLIKEN POPULATION IN EACH MOLECULAR ORBITAL
         BETA ORBITALS

                      1          2          3          4          5

                  1.000000   1.000000   1.000000   1.000000   1.000000

    1             1.000060   0.706208   0.563300   0.563300   0.563300
    2            -0.000015   0.073448   0.001224   0.124743   0.201558
    3            -0.000015   0.073448   0.003353   0.090091   0.234081
    4            -0.000015   0.073447   0.259024   0.068497   0.000006
    5            -0.000015   0.073448   0.173100   0.153369   0.001055

     ATOMIC SPIN POPULATION (ALPHA MINUS BETA)
       ATOM         MULL.POP.                    LOW.POP.
    1 C             0.000000                     0.000000
    2 H             0.000000                     0.000000
    3 H             0.000000                     0.000000
    4 H             0.000000                     0.000000
    5 H             0.000000                     0.000000


          ********* ALL ELECTRONS ********

               ----- POPULATIONS IN EACH AO -----
                             MULLIKEN      LOWDIN
              1  C  1  S      1.10323     1.04710
              2  C  1  S      0.89059     0.91228
              3  C  1  X      0.20431     0.18110
              4  C  1  Y      0.20431     0.18120
              5  C  1  Z      0.20431     0.18116
              6  C  1  S      0.71391     0.40529
              7  C  1  X      0.49972     0.30193
              8  C  1  Y      0.49972     0.30239
              9  C  1  Z      0.49972     0.30232
             10  C  1  S      0.64558     0.25803
             11  C  1  X      0.37913     0.32448
             12  C  1  Y      0.37913     0.32464
             13  C  1  Z      0.37913     0.32469
             14  C  1  S     -0.01943     0.04130
             15  C  1  X     -0.02569     0.04820
             16  C  1  Y     -0.02569     0.04821
             17  C  1  Z     -0.02569     0.04821
             18  C  1 XX      0.02743     0.15484
             19  C  1 YY      0.02990     0.15778
             20  C  1 ZZ      0.02921     0.15701
             21  C  1 XY      0.01688     0.02382
             22  C  1 XZ      0.01825     0.02577
             23  C  1 YZ      0.01331     0.01880
             24  C  1 XXX     0.02513     0.18346
             25  C  1 YYY     0.02703     0.18954
             26  C  1 ZZZ     0.02644     0.18786
             27  C  1 XXY     0.01207     0.09981
             28  C  1 XXZ     0.01213     0.10120
             29  C  1 YYX     0.01193     0.09926
             30  C  1 YYZ     0.01073     0.09377
             31  C  1 ZZX     0.01304     0.10263
             32  C  1 ZZY     0.01024     0.09298
             33  C  1 XYZ     0.00229     0.00372
             34  H  2  S      0.26289     0.22905
             35  H  2  S      0.42725     0.36441
             36  H  2  S      0.09048     0.15017
             37  H  2  S      0.02129     0.02524
             38  H  3  S      0.26289     0.22650
             39  H  3  S      0.42725     0.36344
             40  H  3  S      0.09048     0.15025
             41  H  3  S      0.02129     0.02525
             42  H  4  S      0.26288     0.22988
             43  H  4  S      0.42726     0.36473
             44  H  4  S      0.09048     0.15014
             45  H  4  S      0.02129     0.02524
             46  H  5  S      0.26289     0.23058
             47  H  5  S      0.42725     0.36500
             48  H  5  S      0.09048     0.15012
             49  H  5  S      0.02129     0.02524

          ----- MULLIKEN ATOMIC OVERLAP POPULATIONS -----
          (OFF-DIAGONAL ELEMENTS NEED TO BE MULTIPLIED BY 2)

             1           2           3           4           5

    1    5.2550898
    2    0.3843113   0.5317410
    3    0.3843113  -0.0380457   0.5317410
    4    0.3843114  -0.0380450  -0.0380450   0.5317407
    5    0.3843112  -0.0380456  -0.0380456  -0.0380448   0.5317407

          TOTAL MULLIKEN AND LOWDIN ATOMIC POPULATIONS
       ATOM         MULL.POP.    CHARGE          LOW.POP.     CHARGE
    1 C             6.792335   -0.792335         6.924773   -0.924773
    2 H             0.801916    0.198084         0.768872    0.231128
    3 H             0.801916    0.198084         0.765435    0.234565
    4 H             0.801917    0.198083         0.769987    0.230013
    5 H             0.801916    0.198084         0.770934    0.229066

          -------------------------------
          BOND ORDER AND VALENCE ANALYSIS     BOND ORDER THRESHOLD=0.050
          -------------------------------

                   BOND                       BOND                       BOND
  ATOM PAIR DIST  ORDER      ATOM PAIR DIST  ORDER      ATOM PAIR DIST  ORDER
    1   2  1.090  0.945        1   3  1.090  0.945        1   4  1.090  0.945
    1   5  1.090  0.945

                       TOTAL       BONDED        FREE
      ATOM            VALENCE     VALENCE     VALENCE
    1 C                 3.782       3.782       0.000
    2 H                 0.907       0.907       0.000
    3 H                 0.907       0.907       0.000
    4 H                 0.907       0.907      -0.000
    5 H                 0.907       0.907       0.000

          -----------------------------------------
          ATOMIC SPIN DENSITY AT THE NUCLEUS (A.U.)
          -----------------------------------------
                            SPIN DENS    ALPHA DENS     BETA DENS
    1  C            6.0     0.0000000      59.68148      59.68148
    2  H            1.0     0.0000000       0.21215       0.21215
    3  H            1.0     0.0000000       0.21215       0.21215
    4  H            1.0     0.0000000       0.21215       0.21215
    5  H            1.0     0.0000000       0.21215       0.21215

          ---------------------
          ELECTROSTATIC MOMENTS
          ---------------------

 POINT   1           X           Y           Z (BOHR)    CHARGE
                 0.000001    0.000001    0.000001       -0.00 (A.U.)
         DX          DY          DZ         /D/  (DEBYE)
    -0.000004   -0.000002   -0.000005    0.000006
 ...... END OF PROPERTY EVALUATION ......
 STEP CPU TIME =     0.00 TOTAL CPU TIME =          0.3 (      0.0 MIN)
 TOTAL WALL CLOCK TIME=          0.4 SECONDS, CPU UTILIZATION IS    94.29%
               580000  WORDS OF DYNAMIC MEMORY USED
 EXECUTION OF GAMESS TERMINATED NORMALLY Sat Jan  5 13:36:19 2019
 DDI: 263640 bytes (0.3 MB / 0 MWords) used by master data server.

 ----------------------------------------
 CPU timing information for all processes
 ========================================
 0: 0.336 + 0.08 = 0.344
 ----------------------------------------
 ddikick.x: exited gracefully.
----- accounting info -----
Files used on the master node multivac2 were:
-rw-rw-r-- 1 igorchem igorchem     649 Jan  5 13:36 /home/igorchem/programs/src/metano.F05
-rw-rw-r-- 1 igorchem igorchem 1930480 Jan  5 13:36 /home/igorchem/programs/src/metano.F10
Sat Jan  5 13:36:22 -03 2019
0.0u 0.0s 0:03.39 0.2% 0+0k 0+24io 0pf+0w
