Alanina_neutra                                                          
SP        UB3LYP                                                      6-311+G             
Number of atoms                            I               13
Info1-9                                    I   N=           9
          35          35           0           0           0         110
           1          18        -502
Charge                                     I               -1
Multiplicity                               I                2
Number of electrons                        I               49
Number of alpha electrons                  I               25
Number of beta electrons                   I               24
Number of basis functions                  I              123
Number of independent functions            I              123
Number of point charges in /Mol/           I                0
Number of translation vectors              I                0
Atomic numbers                             I   N=          13
           7           1           6           1           6           6
           1           1           1           8           1           8
           1
Nuclear charges                            R   N=          13
  7.00000000E+00  1.00000000E+00  6.00000000E+00  1.00000000E+00  6.00000000E+00
  6.00000000E+00  1.00000000E+00  1.00000000E+00  1.00000000E+00  8.00000000E+00
  1.00000000E+00  8.00000000E+00  1.00000000E+00
Current cartesian coordinates              R   N=          39
 -2.94549156E+00 -1.83820653E+00 -3.40059997E-01 -2.25302031E+00 -3.45247295E+00
  3.56855883E-01 -1.27892318E+00  2.89351086E-01 -7.80347289E-01 -1.32269113E+00
  7.95463208E-01 -2.77652358E+00 -2.08981223E+00  2.58029253E+00  7.68521383E-01
  1.42956459E+00 -3.49211941E-01 -5.32600413E-02 -2.03897859E+00  2.10812367E+00
  2.77283106E+00 -8.05783003E-01  4.14834759E+00  4.00746662E-01 -4.00508557E+00
  3.12419540E+00  2.40622608E-01  1.95408076E+00 -2.50478097E+00  8.03152504E-01
 -4.78811627E+00 -1.69223463E+00 -7.33121143E-01  3.37828797E+00  1.50033106E+00
 -3.43317885E-01  4.80819272E+00  7.49017519E-01 -1.16914710E+00
Force Field                                I                0
Int Atom Types                             I   N=          13
           0           0           0           0           0           0
           0           0           0           0           0           0
           0
MM charges                                 R   N=          13
  0.00000000E+00  0.00000000E+00  0.00000000E+00  0.00000000E+00  0.00000000E+00
  0.00000000E+00  0.00000000E+00  0.00000000E+00  0.00000000E+00  0.00000000E+00
  0.00000000E+00  0.00000000E+00  0.00000000E+00
Integer atomic weights                     I   N=          13
          14           1          12           1          12          12
           1           1           1          16           1          16
           1
Real atomic weights                        R   N=          13
  1.40030740E+01  1.00782504E+00  1.20000000E+01  1.00782504E+00  1.20000000E+01
  1.20000000E+01  1.00782504E+00  1.00782504E+00  1.00782504E+00  1.59949146E+01
  1.00782504E+00  1.59949146E+01  1.00782504E+00
Atom fragment info                         I   N=          13
           0           0           0           0           0           0
           0           0           0           0           0           0
           0
Atom residue num                           I   N=          13
           0           0           0           0           0           0
           0           0           0           0           0           0
           0
Nuclear spins                              I   N=          13
           2           1           0           1           0           0
           1           1           1           0           1           0
           1
Nuclear ZEff                               R   N=          13
 -4.55000000E+00 -1.00000000E+00 -3.60000000E+00 -1.00000000E+00 -3.60000000E+00
 -3.60000000E+00 -1.00000000E+00 -1.00000000E+00 -1.00000000E+00 -5.60000000E+00
 -1.00000000E+00 -5.60000000E+00 -1.00000000E+00
Nuclear ZNuc                               R   N=          13
  7.00000000E+00  1.00000000E+00  6.00000000E+00  1.00000000E+00  6.00000000E+00
  6.00000000E+00  1.00000000E+00  1.00000000E+00  1.00000000E+00  8.00000000E+00
  1.00000000E+00  8.00000000E+00  1.00000000E+00
Nuclear QMom                               R   N=          13
  2.04400000E+00  0.00000000E+00  0.00000000E+00  0.00000000E+00  0.00000000E+00
  0.00000000E+00  0.00000000E+00  0.00000000E+00  0.00000000E+00  0.00000000E+00
  0.00000000E+00  0.00000000E+00  0.00000000E+00
Nuclear GFac                               R   N=          13
  4.03761000E-01  2.79284600E+00  0.00000000E+00  2.79284600E+00  0.00000000E+00
  0.00000000E+00  2.79284600E+00  2.79284600E+00  2.79284600E+00  0.00000000E+00
  2.79284600E+00  0.00000000E+00  2.79284600E+00
MicOpt                                     I   N=          13
          -1          -1          -1          -1          -1          -1
          -1          -1          -1          -1          -1          -1
          -1
Number of contracted shells                I               51
Number of primitive shells                 I              107
Pure/Cartesian d shells                    I                0
Pure/Cartesian f shells                    I                0
Highest angular momentum                   I                1
Largest degree of contraction              I                6
Shell types                                I   N=          51
           0          -1          -1          -1          -1           0
           0           0           0          -1          -1          -1
          -1           0           0           0           0          -1
          -1          -1          -1           0          -1          -1
          -1          -1           0           0           0           0
           0           0           0           0           0           0
          -1          -1          -1          -1           0           0
           0           0          -1          -1          -1          -1
           0           0           0
Number of primitives per shell             I   N=          51
           6           3           1           1           1           3
           1           1           6           3           1           1
           1           3           1           1           6           3
           1           1           1           6           3           1
           1           1           3           1           1           3
           1           1           3           1           1           6
           3           1           1           1           3           1
           1           6           3           1           1           1
           3           1           1
Shell to atom map                          I   N=          51
           1           1           1           1           1           2
           2           2           3           3           3           3
           3           4           4           4           5           5
           5           5           5           6           6           6
           6           6           7           7           7           8
           8           8           9           9           9          10
          10          10          10          10          11          11
          11          12          12          12          12          12
          13          13          13
Primitive exponents                        R   N=         107
  6.29348000E+03  9.49044000E+02  2.18776000E+02  6.36916000E+01  1.88282000E+01
  2.72023000E+00  3.06331000E+01  7.02614000E+00  2.11205000E+00  6.84009000E-01
  2.00878000E-01  6.39000000E-02  3.38650000E+01  5.09479000E+00  1.15879000E+00
  3.25840000E-01  1.02741000E-01  4.56324000E+03  6.82024000E+02  1.54973000E+02
  4.44553000E+01  1.30290000E+01  1.82773000E+00  2.09642000E+01  4.80331000E+00
  1.45933000E+00  4.83456000E-01  1.45585000E-01  4.38000000E-02  3.38650000E+01
  5.09479000E+00  1.15879000E+00  3.25840000E-01  1.02741000E-01  4.56324000E+03
  6.82024000E+02  1.54973000E+02  4.44553000E+01  1.30290000E+01  1.82773000E+00
  2.09642000E+01  4.80331000E+00  1.45933000E+00  4.83456000E-01  1.45585000E-01
  4.38000000E-02  4.56324000E+03  6.82024000E+02  1.54973000E+02  4.44553000E+01
  1.30290000E+01  1.82773000E+00  2.09642000E+01  4.80331000E+00  1.45933000E+00
  4.83456000E-01  1.45585000E-01  4.38000000E-02  3.38650000E+01  5.09479000E+00
  1.15879000E+00  3.25840000E-01  1.02741000E-01  3.38650000E+01  5.09479000E+00
  1.15879000E+00  3.25840000E-01  1.02741000E-01  3.38650000E+01  5.09479000E+00
  1.15879000E+00  3.25840000E-01  1.02741000E-01  8.58850000E+03  1.29723000E+03
  2.99296000E+02  8.73771000E+01  2.56789000E+01  3.74004000E+00  4.21175000E+01
  9.62837000E+00  2.85332000E+00  9.05661000E-01  2.55611000E-01  8.45000000E-02
  3.38650000E+01  5.09479000E+00  1.15879000E+00  3.25840000E-01  1.02741000E-01
  8.58850000E+03  1.29723000E+03  2.99296000E+02  8.73771000E+01  2.56789000E+01
  3.74004000E+00  4.21175000E+01  9.62837000E+00  2.85332000E+00  9.05661000E-01
  2.55611000E-01  8.45000000E-02  3.38650000E+01  5.09479000E+00  1.15879000E+00
  3.25840000E-01  1.02741000E-01
Contraction coefficients                   R   N=         107
  1.96978815E-03  1.49612859E-02  7.35005308E-02  2.48936766E-01  6.02459433E-01
  2.56201759E-01  1.11906080E-01  9.21666655E-01 -2.56919183E-03  1.00000000E+00
  1.00000000E+00  1.00000000E+00  2.54938145E-02  1.90373109E-01  8.52161486E-01
  1.00000000E+00  1.00000000E+00  1.96665025E-03  1.52306019E-02  7.61269097E-02
  2.60801033E-01  6.16462078E-01  2.21006028E-01  1.14660081E-01  9.19999648E-01
 -3.03068213E-03  1.00000000E+00  1.00000000E+00  1.00000000E+00  2.54938145E-02
  1.90373109E-01  8.52161486E-01  1.00000000E+00  1.00000000E+00  1.96665025E-03
  1.52306019E-02  7.61269097E-02  2.60801033E-01  6.16462078E-01  2.21006028E-01
  1.14660081E-01  9.19999648E-01 -3.03068213E-03  1.00000000E+00  1.00000000E+00
  1.00000000E+00  1.96665025E-03  1.52306019E-02  7.61269097E-02  2.60801033E-01
  6.16462078E-01  2.21006028E-01  1.14660081E-01  9.19999648E-01 -3.03068213E-03
  1.00000000E+00  1.00000000E+00  1.00000000E+00  2.54938145E-02  1.90373109E-01
  8.52161486E-01  1.00000000E+00  1.00000000E+00  2.54938145E-02  1.90373109E-01
  8.52161486E-01  1.00000000E+00  1.00000000E+00  2.54938145E-02  1.90373109E-01
  8.52161486E-01  1.00000000E+00  1.00000000E+00  1.89515008E-03  1.43859006E-02
  7.07320031E-02  2.40001011E-01  5.94797026E-01  2.80802012E-01  1.13889012E-01
  9.20811101E-01 -3.27447036E-03  1.00000000E+00  1.00000000E+00  1.00000000E+00
  2.54938145E-02  1.90373109E-01  8.52161486E-01  1.00000000E+00  1.00000000E+00
  1.89515008E-03  1.43859006E-02  7.07320031E-02  2.40001011E-01  5.94797026E-01
  2.80802012E-01  1.13889012E-01  9.20811101E-01 -3.27447036E-03  1.00000000E+00
  1.00000000E+00  1.00000000E+00  2.54938145E-02  1.90373109E-01  8.52161486E-01
  1.00000000E+00  1.00000000E+00
P(S=P) Contraction coefficients            R   N=         107
  0.00000000E+00  0.00000000E+00  0.00000000E+00  0.00000000E+00  0.00000000E+00
  0.00000000E+00  3.83119186E-02  2.37403116E-01  8.17592398E-01  1.00000000E+00
  1.00000000E+00  1.00000000E+00  0.00000000E+00  0.00000000E+00  0.00000000E+00
  0.00000000E+00  0.00000000E+00  0.00000000E+00  0.00000000E+00  0.00000000E+00
  0.00000000E+00  0.00000000E+00  0.00000000E+00  4.02486927E-02  2.37593957E-01
  8.15853851E-01  1.00000000E+00  1.00000000E+00  1.00000000E+00  0.00000000E+00
  0.00000000E+00  0.00000000E+00  0.00000000E+00  0.00000000E+00  0.00000000E+00
  0.00000000E+00  0.00000000E+00  0.00000000E+00  0.00000000E+00  0.00000000E+00
  4.02486927E-02  2.37593957E-01  8.15853851E-01  1.00000000E+00  1.00000000E+00
  1.00000000E+00  0.00000000E+00  0.00000000E+00  0.00000000E+00  0.00000000E+00
  0.00000000E+00  0.00000000E+00  4.02486927E-02  2.37593957E-01  8.15853851E-01
  1.00000000E+00  1.00000000E+00  1.00000000E+00  0.00000000E+00  0.00000000E+00
  0.00000000E+00  0.00000000E+00  0.00000000E+00  0.00000000E+00  0.00000000E+00
  0.00000000E+00  0.00000000E+00  0.00000000E+00  0.00000000E+00  0.00000000E+00
  0.00000000E+00  0.00000000E+00  0.00000000E+00  0.00000000E+00  0.00000000E+00
  0.00000000E+00  0.00000000E+00  0.00000000E+00  0.00000000E+00  3.65113974E-02
  2.37152983E-01  8.19701941E-01  1.00000000E+00  1.00000000E+00  1.00000000E+00
  0.00000000E+00  0.00000000E+00  0.00000000E+00  0.00000000E+00  0.00000000E+00
  0.00000000E+00  0.00000000E+00  0.00000000E+00  0.00000000E+00  0.00000000E+00
  0.00000000E+00  3.65113974E-02  2.37152983E-01  8.19701941E-01  1.00000000E+00
  1.00000000E+00  1.00000000E+00  0.00000000E+00  0.00000000E+00  0.00000000E+00
  0.00000000E+00  0.00000000E+00
Coordinates of each shell                  R   N=         153
 -2.94549139E+00 -1.83820654E+00 -3.40060115E-01 -2.94549139E+00 -1.83820654E+00
 -3.40060115E-01 -2.94549139E+00 -1.83820654E+00 -3.40060115E-01 -2.94549139E+00
 -1.83820654E+00 -3.40060115E-01 -2.94549139E+00 -1.83820654E+00 -3.40060115E-01
 -2.25301997E+00 -3.45247288E+00  3.56855765E-01 -2.25301997E+00 -3.45247288E+00
  3.56855765E-01 -2.25301997E+00 -3.45247288E+00  3.56855765E-01 -1.27892325E+00
  2.89351261E-01 -7.80347407E-01 -1.27892325E+00  2.89351261E-01 -7.80347407E-01
 -1.27892325E+00  2.89351261E-01 -7.80347407E-01 -1.27892325E+00  2.89351261E-01
 -7.80347407E-01 -1.27892325E+00  2.89351261E-01 -7.80347407E-01 -1.32269126E+00
  7.95463378E-01 -2.77652370E+00 -1.32269126E+00  7.95463378E-01 -2.77652370E+00
 -1.32269126E+00  7.95463378E-01 -2.77652370E+00 -2.08981255E+00  2.58029262E+00
  7.68521265E-01 -2.08981255E+00  2.58029262E+00  7.68521265E-01 -2.08981255E+00
  2.58029262E+00  7.68521265E-01 -2.08981255E+00  2.58029262E+00  7.68521265E-01
 -2.08981255E+00  2.58029262E+00  7.68521265E-01  1.42956459E+00 -3.49211469E-01
 -5.32601594E-02  1.42956459E+00 -3.49211469E-01 -5.32601594E-02  1.42956459E+00
 -3.49211469E-01 -5.32601594E-02  1.42956459E+00 -3.49211469E-01 -5.32601594E-02
  1.42956459E+00 -3.49211469E-01 -5.32601594E-02 -2.03897886E+00  2.10812376E+00
  2.77283094E+00 -2.03897886E+00  2.10812376E+00  2.77283094E+00 -2.03897886E+00
  2.10812376E+00  2.77283094E+00 -8.05783496E-01  4.14834782E+00  4.00746544E-01
 -8.05783496E-01  4.14834782E+00  4.00746544E-01 -8.05783496E-01  4.14834782E+00
  4.00746544E-01 -4.00508595E+00  3.12419527E+00  2.40622490E-01 -4.00508595E+00
  3.12419527E+00  2.40622490E-01 -4.00508595E+00  3.12419527E+00  2.40622490E-01
  1.95408099E+00 -2.50478044E+00  8.03152386E-01  1.95408099E+00 -2.50478044E+00
  8.03152386E-01  1.95408099E+00 -2.50478044E+00  8.03152386E-01  1.95408099E+00
 -2.50478044E+00  8.03152386E-01  1.95408099E+00 -2.50478044E+00  8.03152386E-01
 -4.78811612E+00 -1.69223484E+00 -7.33121261E-01 -4.78811612E+00 -1.69223484E+00
 -7.33121261E-01 -4.78811612E+00 -1.69223484E+00 -7.33121261E-01  3.37828777E+00
  1.50033174E+00 -3.43318003E-01  3.37828777E+00  1.50033174E+00 -3.43318003E-01
  3.37828777E+00  1.50033174E+00 -3.43318003E-01  3.37828777E+00  1.50033174E+00
 -3.43318003E-01  3.37828777E+00  1.50033174E+00 -3.43318003E-01  4.80819259E+00
  7.49018361E-01 -1.16914722E+00  4.80819259E+00  7.49018361E-01 -1.16914722E+00
  4.80819259E+00  7.49018361E-01 -1.16914722E+00
Constraint Structure                       R   N=          39
 -2.94549139E+00 -1.83820654E+00 -3.40060115E-01 -2.25301997E+00 -3.45247288E+00
  3.56855765E-01 -1.27892325E+00  2.89351261E-01 -7.80347407E-01 -1.32269126E+00
  7.95463378E-01 -2.77652370E+00 -2.08981255E+00  2.58029262E+00  7.68521265E-01
  1.42956459E+00 -3.49211469E-01 -5.32601594E-02 -2.03897886E+00  2.10812376E+00
  2.77283094E+00 -8.05783496E-01  4.14834782E+00  4.00746544E-01 -4.00508595E+00
  3.12419527E+00  2.40622490E-01  1.95408099E+00 -2.50478044E+00  8.03152386E-01
 -4.78811612E+00 -1.69223484E+00 -7.33121261E-01  3.37828777E+00  1.50033174E+00
 -3.43318003E-01  4.80819259E+00  7.49018361E-01 -1.16914722E+00
Num ILSW                                   I              100
ILSW                                       I   N=         100
           1           0           0           0           2           0
           0           0           3           0         402          -1
           0           0           0           0           0           0
           0           0           1           0           0           0
           1           0           0           0           0           0
           0           0      100000           0          -1           0
           0           0           0           0           0           0
           0           0           0           1           0           0
           0           0           1           0           0           0
           0           0           4          41           0           0
           0           0           5           0           0           0
           0           0           0           0           0           0
           0           0           0           0           0           0
           0           0           0           0           0           0
           0           0           0           0           0           0
           0           0           0           0           0           0
           0           0           0           0
Num RLSW                                   I               41
RLSW                                       R   N=          41
  8.00000000E-01  7.20000000E-01  1.00000000E+00  8.10000000E-01  2.00000000E-01
  0.00000000E+00  0.00000000E+00  1.00000000E+00  0.00000000E+00  0.00000000E+00
  0.00000000E+00  0.00000000E+00  1.00000000E+00  0.00000000E+00  0.00000000E+00
  0.00000000E+00  0.00000000E+00  1.00000000E+00  0.00000000E+00  0.00000000E+00
  0.00000000E+00  0.00000000E+00  1.00000000E+00  0.00000000E+00  0.00000000E+00
  0.00000000E+00  0.00000000E+00  1.00000000E+00  0.00000000E+00  0.00000000E+00
  0.00000000E+00  0.00000000E+00  1.00000000E+00  0.00000000E+00  0.00000000E+00
  0.00000000E+00  0.00000000E+00  0.00000000E+00  1.00000000E+00  1.00000000E+00
  0.00000000E+00
MxBond                                     I                4
NBond                                      I   N=          13
           3           1           4           1           4           3
           1           1           1           1           1           2
           1
IBond                                      I   N=          52
           2           3          11           0           1           0
           0           0           1           4           5           6
           3           0           0           0           3           7
           8           9           3          10          12           0
           5           0           0           0           5           0
           0           0           5           0           0           0
           6           0           0           0           1           0
           0           0           6          13           0           0
          12           0           0           0
RBond                                      R   N=          52
  1.00000000E+00  1.00000000E+00  1.00000000E+00  0.00000000E+00  1.00000000E+00
  0.00000000E+00  0.00000000E+00  0.00000000E+00  1.00000000E+00  1.00000000E+00
  1.00000000E+00  1.00000000E+00  1.00000000E+00  0.00000000E+00  0.00000000E+00
  0.00000000E+00  1.00000000E+00  1.00000000E+00  1.00000000E+00  1.00000000E+00
  1.00000000E+00  2.00000000E+00  1.00000000E+00  0.00000000E+00  1.00000000E+00
  0.00000000E+00  0.00000000E+00  0.00000000E+00  1.00000000E+00  0.00000000E+00
  0.00000000E+00  0.00000000E+00  1.00000000E+00  0.00000000E+00  0.00000000E+00
  0.00000000E+00  2.00000000E+00  0.00000000E+00  0.00000000E+00  0.00000000E+00
  1.00000000E+00  0.00000000E+00  0.00000000E+00  0.00000000E+00  1.00000000E+00
  1.00000000E+00  0.00000000E+00  0.00000000E+00  1.00000000E+00  0.00000000E+00
  0.00000000E+00  0.00000000E+00
Virial Ratio                               R      2.002563156675485E+00
SCF Energy                                 R     -3.236977311156621E+02
Total Energy                               R     -3.236977311156621E+02
S**2                                       R      7.521160135380747E-01
S**2 after annihilation                    R      7.500031863251254E-01
RMS Density                                R      7.474283242539403E-09
External E-field                           R   N=          35
  0.00000000E+00  0.00000000E+00  0.00000000E+00  0.00000000E+00  0.00000000E+00
  0.00000000E+00  0.00000000E+00  0.00000000E+00  0.00000000E+00  0.00000000E+00
  0.00000000E+00  0.00000000E+00  0.00000000E+00  0.00000000E+00  0.00000000E+00
  0.00000000E+00  0.00000000E+00  0.00000000E+00  0.00000000E+00  0.00000000E+00
  0.00000000E+00  0.00000000E+00  0.00000000E+00  0.00000000E+00  0.00000000E+00
  0.00000000E+00  0.00000000E+00  0.00000000E+00  0.00000000E+00  0.00000000E+00
  0.00000000E+00  0.00000000E+00  0.00000000E+00  0.00000000E+00  0.00000000E+00
IOpCl                                      I                1
IROHF                                      I                0
Alpha Orbital Energies                     R   N=         123
 -1.89894110E+01 -1.89347345E+01 -1.41379763E+01 -1.01145119E+01 -1.00642404E+01
 -1.00082257E+01 -9.14430162E-01 -8.37763828E-01 -7.35257860E-01 -6.02006274E-01
 -5.00395387E-01 -4.32085644E-01 -3.78651111E-01 -3.26365183E-01 -3.07311349E-01
 -2.99142626E-01 -2.55540127E-01 -2.50249905E-01 -2.39928404E-01 -2.15485632E-01
 -1.85173285E-01 -1.49746639E-01 -1.01720843E-01 -7.38062597E-02  7.90056940E-02
  1.22852134E-01  1.32707197E-01  1.41566711E-01  1.51093024E-01  1.75181127E-01
  1.81617105E-01  1.92929823E-01  1.95250935E-01  2.13225603E-01  2.24314365E-01
  2.35869482E-01  2.40393306E-01  2.60920014E-01  2.82520257E-01  2.93392698E-01
  3.01309382E-01  3.12716219E-01  3.19708531E-01  3.34000884E-01  3.37856851E-01
  3.47108147E-01  3.57923586E-01  3.77818119E-01  3.81451704E-01  3.91525295E-01
  4.05126666E-01  4.21436484E-01  4.26270243E-01  4.33708153E-01  4.45430504E-01
  4.47718112E-01  4.69737663E-01  4.83977304E-01  5.02150289E-01  5.31407106E-01
  5.78139765E-01  5.91659497E-01  6.36984560E-01  6.44466939E-01  6.76704902E-01
  6.92043354E-01  7.31330432E-01  7.42451189E-01  7.55567077E-01  7.90887019E-01
  8.02411585E-01  8.12421333E-01  8.29194167E-01  8.33814334E-01  8.49262810E-01
  8.85656741E-01  9.00851585E-01  9.70482537E-01  9.83288690E-01  1.02009322E+00
  1.10681701E+00  1.14305257E+00  1.17812231E+00  1.24054295E+00  1.31464059E+00
  1.32873605E+00  1.34591516E+00  1.38005159E+00  1.38772955E+00  1.47298156E+00
  1.74189297E+00  1.83872508E+00  2.49485734E+00  2.53601735E+00  2.53983345E+00
  2.58177570E+00  2.60129605E+00  2.61272453E+00  2.71574520E+00  2.82330058E+00
  3.00183569E+00  3.02342255E+00  3.06466357E+00  3.08811317E+00  3.12308118E+00
  3.17034171E+00  3.27146163E+00  3.30193190E+00  4.02222209E+00  4.17057348E+00
  4.29355653E+00  5.14997044E+00  5.20107382E+00  5.22000864E+00  5.28508632E+00
  5.30798129E+00  5.37279995E+00  2.35415692E+01  2.36566173E+01  2.37369592E+01
  3.55477975E+01  5.00010590E+01  5.00799067E+01
Beta Orbital Energies                      R   N=         123
 -1.89887486E+01 -1.89312242E+01 -1.41377585E+01 -1.01086860E+01 -1.00644297E+01
 -1.00071568E+01 -9.09208038E-01 -8.32376983E-01 -7.34543850E-01 -5.99683301E-01
 -4.95141631E-01 -4.26869764E-01 -3.77512633E-01 -3.23506825E-01 -3.03296729E-01
 -2.93204049E-01 -2.52115142E-01 -2.45243012E-01 -2.38421701E-01 -2.13007304E-01
 -1.75687948E-01 -1.38842729E-01 -9.86239115E-02 -7.31141751E-02  1.20970070E-01
  1.34381577E-01  1.44180621E-01  1.54461423E-01  1.70014931E-01  1.78811554E-01
  1.82205178E-01  1.93620652E-01  1.98004109E-01  2.16934435E-01  2.27966008E-01
  2.38747502E-01  2.42544655E-01  2.63074078E-01  2.85061547E-01  2.94538708E-01
  3.02655052E-01  3.15742309E-01  3.24274676E-01  3.35236753E-01  3.40886635E-01
  3.53092901E-01  3.60472500E-01  3.80068196E-01  3.82571032E-01  3.92674543E-01
  4.05696334E-01  4.22879406E-01  4.27453625E-01  4.34714878E-01  4.47138033E-01
  4.50132666E-01  4.71613270E-01  4.85440221E-01  5.03372682E-01  5.33162855E-01
  5.79951096E-01  5.92805219E-01  6.42128858E-01  6.47806132E-01  6.83477839E-01
  6.92452991E-01  7.33699070E-01  7.49800046E-01  7.57067765E-01  7.95079968E-01
  8.04863771E-01  8.15964663E-01  8.30474321E-01  8.35142884E-01  8.51218014E-01
  8.86856655E-01  9.02763980E-01  9.71284868E-01  9.86795034E-01  1.02244235E+00
  1.10787386E+00  1.14770441E+00  1.17964844E+00  1.24286628E+00  1.31712215E+00
  1.33309727E+00  1.34787182E+00  1.38151369E+00  1.38904853E+00  1.47377325E+00
  1.74559339E+00  1.84115764E+00  2.50296962E+00  2.53615582E+00  2.54097581E+00
  2.58266346E+00  2.60299896E+00  2.61315901E+00  2.71598398E+00  2.84516976E+00
  3.00334298E+00  3.02469990E+00  3.06585771E+00  3.09100684E+00  3.12577697E+00
  3.17345486E+00  3.27292326E+00  3.30385447E+00  4.02229889E+00  4.17100605E+00
  4.29384941E+00  5.15252732E+00  5.21103700E+00  5.22377029E+00  5.28623696E+00
  5.31030513E+00  5.37492198E+00  2.35451889E+01  2.36600677E+01  2.37375541E+01
  3.55480441E+01  5.00022568E+01  5.00830205E+01
Alpha MO coefficients                      R   N=       15129
  6.70260310E-08  1.97295586E-06  4.96452012E-05 -7.00772514E-06  8.84864444E-06
  3.40257824E-05 -2.04188664E-04  2.93174223E-05 -3.42546349E-05 -1.29028761E-03
  6.35986752E-04 -8.38740034E-04  2.70072239E-04  1.99980849E-03 -8.75956323E-05
  3.23228401E-04  1.97688994E-04  2.74477851E-05 -3.33097854E-04 -5.35387257E-04
 -5.04654627E-06  2.93657306E-05  2.63039466E-05  1.66376734E-05  1.55288349E-06
 -2.57662731E-04 -8.26349248E-05 -1.06238186E-05 -3.44373342E-05  1.81432758E-03
 -9.29281734E-04 -1.48479361E-03  1.09952730E-03 -1.62848537E-03  2.26049348E-03
 -7.82118250E-04 -1.77376089E-03  2.06579363E-05  1.13010842E-04  3.66883907E-04
  2.93071434E-06 -1.23405765E-05  2.25061997E-05 -1.55313051E-05 -8.74323080E-06
  1.80672204E-04 -2.49288129E-05  4.62483512E-05  2.18502300E-05 -6.70015544E-04
 -2.12648331E-04  6.99061020E-04 -5.91356122E-04  7.74740382E-03  1.16233199E-03
 -1.65390242E-03 -4.48272499E-04  1.12567873E-05 -4.34925829E-05  1.03137388E-04
  1.73659078E-04 -1.13546952E-05  3.12792104E-04  1.73242691E-04 -8.05842064E-05
 -3.88139168E-05  4.84959328E-04  2.46266006E-03  3.71629061E-03 -8.19361970E-04
 -1.05861690E-02  1.87148956E-03 -3.00196547E-03  8.61870070E-04 -5.22076829E-05
  4.92966402E-04  5.28396901E-05  2.79038218E-05 -4.91165834E-05 -5.25474073E-04
  2.47794851E-05 -1.58585339E-04 -1.84294344E-04 -7.65539751E-05 -3.88786885E-05
  4.26410336E-06  2.97127652E-05 -2.30698446E-05 -2.04872134E-04  6.86197506E-07
 -1.27148537E-04  9.41799833E-05  1.03590640E-03 -5.26726928E-04  1.49769744E-04
 -2.80613442E-04  1.78339217E-03 -9.05286303E-04  5.82297838E-04 -4.55089653E-05
 -4.73450488E-05  5.34949756E-04 -1.78636014E-04  5.51326867E-01  4.69764232E-01
  1.99429597E-04 -1.69352166E-03 -6.69595336E-04  1.35572799E-02 -2.93992396E-04
  3.35934376E-04  2.32581514E-04 -1.11479786E-02  1.18407229E-03  1.13414231E-03
  1.81841610E-06  7.36169447E-03 -4.75900324E-04 -3.72909936E-04 -3.43072661E-04
 -6.70007627E-06  1.00173066E-03 -1.71714713E-03 -1.58858367E-06  2.38243475E-05
  1.81196177E-05  1.12968385E-05 -3.97810357E-06 -2.00651822E-04 -3.73064709E-05
 -5.98916673E-05  2.29423461E-05  1.54193993E-03 -1.65374263E-04  7.63935227E-04
 -2.80979541E-04  1.12227674E-04 -5.94489270E-05  2.57933793E-04  2.80793717E-04
 -2.77836933E-05  2.41203249E-05  3.61056012E-04 -4.33660007E-06  2.37853379E-05
  2.01922557E-05 -1.05192450E-05  6.26137591E-06 -7.99593938E-05 -1.49716853E-04
  7.34872684E-05 -5.02494980E-05  6.88439828E-05  1.41485607E-03  1.82055268E-03
 -5.67180244E-04 -2.96708696E-03  2.25960431E-03 -3.58886418E-03 -1.88730904E-03
  2.32066777E-05 -2.44972459E-04  3.93310179E-04 -6.95661255E-07  8.92106666E-07
  1.41623089E-05  3.20053438E-05 -1.90798626E-05 -3.98112502E-05 -8.61188850E-05
 -1.19207880E-04  6.05726339E-05 -9.10971919E-05  4.18402721E-04 -1.55374173E-04
  3.84877953E-04  1.03513313E-02  1.12813300E-03 -2.13009086E-03 -1.05293503E-03
 -8.04848657E-06  3.53999566E-05  4.01303692E-05 -2.25577691E-04  8.30321537E-05
  3.95291334E-04  9.46316326E-06  1.33332883E-04 -2.97438615E-05  2.48347162E-03
  2.92278719E-04 -5.11007025E-03  1.87084773E-03 -1.10352385E-02  2.77673667E-03
  7.58985942E-04  3.37982080E-04 -2.39953287E-05  1.86654955E-05 -3.48680201E-04
 -5.03013905E-05  2.34503690E-04 -5.14111155E-04 -4.19445336E-05  2.90377948E-04
  1.52436756E-04  5.51264815E-01  4.69805769E-01 -3.71660164E-04  1.63654546E-03
 -7.58904442E-04  1.36228275E-02 -1.47062210E-05 -1.87191048E-04  1.37405763E-04
 -1.15909224E-02  6.88273924E-04 -1.69936951E-03  6.31477179E-04  4.49680787E-03
 -6.57575777E-04  4.43491805E-05  1.18500426E-04  1.26941538E-05 -4.22014720E-04
  2.01062353E-04  7.96017186E-05  9.18079976E-05 -4.28278513E-05 -1.87494726E-05
  3.96179756E-06 -1.72875281E-04  1.78444917E-04  6.60164816E-05 -1.49092747E-05
  7.77570567E-04 -7.89738147E-04  1.57104645E-04 -1.05950402E-04  2.15122408E-03
 -5.34662796E-04 -3.10688299E-04 -2.78364600E-04  4.35825288E-05 -7.35880604E-06
 -1.82845024E-04  5.57347901E-01  4.65881319E-01 -9.35095262E-05  3.11214208E-05
 -5.07740720E-05  1.54191604E-02  2.16956641E-04  2.58528415E-04 -3.32611578E-05
 -1.51492458E-02 -1.44233253E-03 -1.79103759E-03  1.98424451E-04  2.00854877E-02
  2.82520089E-03  1.84410458E-03  3.42525814E-04 -1.96180082E-04  1.12194898E-03
 -1.69675304E-03 -6.30038041E-06  8.76831853E-05 -1.50696530E-04 -1.93675299E-04